TITLE = "B00001_ReynoldsStress"
VARIABLES = "X", "Y", "Z", "ReXX", "ReXX", "ReYY", "ReXY"
ZONE T="Frame 1" I=65, J=53, K=6, F=POINT
-154.343 138.451 0 0 0
-153.3043 138.451 3.92237 4.607579 0.296538
-152.2656 138.451 4.443145 4.608186 0.18739
-151.2269 138.451 5.371045 4.424477 0.146823
-150.1882 138.451 4.924019 3.871564 0.375371
-149.1495 138.451 5.0093 4.115489 0.627297
-148.1107 138.451 5.665943 4.025623 1.377994
-147.072 138.451 5.093643 3.802736 1.126166
-146.0333 138.451 4.361265 4.149659 0.885854
-144.9946 138.451 4.472507 4.463805 1.127425
-143.9559 138.451 4.247832 4.610965 1.142018
-142.9172 138.451 3.98325 4.701496 0.933208
-141.8785 138.451 4.360634 4.143847 1.167022
-140.8398 138.451 4.580326 4.081701 1.463447
-139.8011 138.451 4.235182 3.904907 1.350923
-138.7624 138.451 4.481451 3.799579 1.335114
-137.7236 138.451 4.698015 3.544653 1.043268
-136.6849 138.451 3.259234 3.508734 0.978411
-135.6462 138.451 3.379996 3.386521 0.829366
-134.6075 138.451 3.081691 3.172925 0.572313
-133.5688 138.451 3.206145 3.032833 0.392324
-132.5301 138.451 3.0241 3.144642 0.425211
-131.4914 138.451 3.567484 3.520318 0.716129
-130.4527 138.451 3.452545 3.534267 0.468055
-129.414 138.451 2.932137 3.42611 0.047195
-128.3753 138.451 2.603334 2.865488 0.332604
-127.3365 138.451 2.653828 2.890542 0.368395
-126.2978 138.451 3.13598 2.975781 0.444293
-125.2591 138.451 4.288285 2.761033 0.924347
-124.2204 138.451 4.325303 3.069735 0.827455
-123.1817 138.451 3.377721 3.298396 0.450796
-122.143 138.451 3.822898 3.340588 0.833352
-121.1043 138.451 3.64862 3.083774 0.842291
-120.0656 138.451 3.69768 2.931648 0.445394
-119.0269 138.451 3.008029 2.801697 0.641646
-117.9882 138.451 3.077783 2.703083 0.533143
-116.9494 138.451 3.955657 2.65878 0.250589
-115.9107 138.451 2.871696 2.683498 0.615147
-114.872 138.451 2.990419 2.470866 0.697486
-113.8333 138.451 2.942356 2.484931 0.652675
-112.7946 138.451 2.589761 2.696253 0.549144
-111.7559 138.451 2.588786 2.709562 0.484073
-110.7172 138.451 3.314079 2.248627 0.173396
-109.6785 138.451 2.695313 2.39336 0.322903
-108.6398 138.451 4.911064 2.391439 0.799942
-107.6011 138.451 2.982201 2.587072 0.507783
-106.5623 138.451 3.32728 2.869978 0.777205
-105.5236 138.451 3.252714 2.936989 0.78939
-104.4849 138.451 2.843318 2.793012 0.781195
-103.4462 138.451 2.253464 2.615427 0.545111
-102.4075 138.451 2.705632 2.957065 0.838814
-101.3688 138.451 3.114203 5.386542 0.637577
-100.3301 138.451 3.109605 3.584775 0.295205
-99.29137 138.451 2.745386 2.487734 0.315352
-98.25266 138.451 2.65693 2.201971 0.265704
-97.21395 138.451 4.417017 2.353716 0.114449
-96.17524 138.451 4.143911 2.199968 0.129749
-95.13653 138.451 3.681468 3.068276 1.100002
-94.09782 138.451 2.910221 3.106369 0.999327
-93.05911 138.451 2.830543 2.283708 -0.090097
-92.0204 138.451 3.537005 2.132052 -0.474377
-90.98169 138.451 4.07317 2.210572 -0.33347
-89.94298 138.451 3.295266 1.94294 -0.076326
-88.90427 138.451 1.672434 1.843951 0.26692
-87.86556 138.451 2.001336 2.077373 0.454791
-86.82685 138.451 2.055826 2.314255 0.365947
-85.78814 138.451 1.808263 2.362084 0.208702
-84.74943 138.451 1.68886 2.018959 0.112182
-83.71072 138.451 1.589373 1.77332 0.050739
-82.67201 138.451 1.612512 1.702973 0.192185
-81.6333 138.451 1.666543 1.851615 0.327588
-80.59459 138.451 1.614427 2.12204 0.345315
-79.55588 138.451 1.547906 1.896687 0.28218
-78.51717 138.451 1.4747 1.656241 0.272025
-77.47846 138.451 1.593281 1.819776 0.391643
-76.43975 138.451 1.646468 1.89872 0.371075
-75.40104 138.451 1.447571 1.730091 0.273756
-74.36233 138.451 1.484169 1.73313 0.342971
-73.32362 138.451 1.515722 1.797181 0.318718
-72.28491 138.451 1.631853 1.865803 0.287403
-71.2462 138.451 1.628327 1.898933 0.256828
-70.20749 138.451 2.159817 2.056202 0.416719
-69.16878 138.451 2.032879 1.867311 0.308737
-68.13007 138.451 1.85884 2.043867 0.196285
-67.09136 138.451 1.739518 1.510239 0.060354
-66.05265 138.451 1.585935 1.395368 -0.00517
-65.01394 138.451 1.505919 1.428887 0.056906
-63.97523 138.451 1.508014 2.462749 0.02743
-62.93652 138.451 1.516684 2.36639 0.010029
-61.89781 138.451 1.501297 2.435453 -0.008509
-60.8591 138.451 1.589976 1.361312 0.054709
-59.82039 138.451 1.642746 1.225769 0.112478
-58.78168 138.451 1.705269 1.119669 0.133309
-57.74297 138.451 1.642228 1.097907 0.125972
-56.70426 138.451 1.386906 1.059863 0.107271
-55.66555 138.451 1.169048 1.05251 0.137072
-54.62684 138.451 1.126709 1.118889 0.14339
-53.58813 138.451 1.217932 1.170424 0.110646
-52.54942 138.451 1.2571 1.137338 0.141378
-51.51071 138.451 1.271085 1.253243 0.091629
-50.472 138.451 1.254272 1.253314 -0.008478
-49.43329 138.451 1.254815 1.144714 -0.023496
-48.39458 138.451 1.213957 1.049053 0.055719
-47.35587 138.451 1.24751 1.187937 0.058983
-46.31716 138.451 1.234813 1.174351 -0.02566
-45.27845 138.451 1.138759 1.158364 -0.037821
-44.23974 138.451 1.057489 1.162485 0.019003
-43.20103 138.451 0.99979 1.127623 0.065737
-42.16232 138.451 1.009962 1.095281 0.104157
-41.12361 138.451 0.993325 1.112697 0.095205
-40.0849 138.451 0.882139 0.849129 0.006413
-39.04619 138.451 0.833867 0.799429 0.013244
-38.00748 138.451 0.976746 0.97908 0.147098
-36.96877 138.451 1.113284 0.996243 0.100581
-35.93006 138.451 1.104754 1.078294 0.15976
-34.89135 138.451 1.918833 1.209004 0.488905
-33.85264 138.451 2.359804 1.245172 0.594129
-32.81393 138.451 2.60624 1.153627 0.607427
-31.77522 138.451 1.05972 1.009872 0.176747
-30.73651 138.451 1.002427 0.851108 0.178306
-29.6978 138.451 0.96031 0.767075 0.104466
-28.65909 138.451 0.917028 0.772058 0.083861
-27.62038 138.451 0.908782 0.763943 0.100892
-26.58167 138.451 0.901608 0.711897 0.123593
-25.54296 138.451 0.898536 0.700925 0.151507
-24.50425 138.451 0.838592 0.757565 0.180365
-23.46554 138.451 0.848773 0.766703 0.132235
-22.42683 138.451 0.895076 0.766776 0.126196
-21.38812 138.451 0.878043 0.800328 0.131721
-20.34941 138.451 0.883688 0.77403 0.12978
-19.3107 138.451 0.91647 0.746312 0.135413
-18.27199 138.451 0.93157 0.704441 0.111175
-17.23328 138.451 0.891377 0.701174 0.040847
-16.19457 138.451 0.789915 0.693018 -0.064765
-15.15586 138.451 0.724245 0.633103 -0.102132
-14.11715 138.451 0.705944 0.595315 -0.091958
-13.07844 138.451 0.716861 0.584737 -0.036161
-12.03973 138.451 0.682351 0.611983 -0.00332
-11.00102 138.451 0.684718 0.65425 -0.010128
-9.962313 138.451 0.719529 0.676255 -0.012671
-8.923603 138.451 0.75391 0.696489 -0.023454
-7.884893 138.451 0.785345 0.64379 -0.083944
-6.846183 138.451 0.792733 0.574781 -0.111859
-5.807473 138.451 0.755371 0.570687 -0.113993
-4.768763 138.451 0.676693 0.619461 -0.094675
-3.730053 138.451 0.637438 0.746403 -0.026795
-2.691343 138.451 0.717245 0.680514 0.007039
-1.652633 138.451 0.598735 0.613288 0.019487
-0.613923 138.451 0.664471 0.559014 -0.015595
0.424787 138.451 0.684946 0.496127 0.019263
1.463497 138.451 0.655181 0.495906 0.016968
2.502207 138.451 0.571519 0.475849 0.002741
3.540917 138.451 0.535201 0.488095 -0.052952
4.579627 138.451 0.601508 0.548461 -0.093374
5.618337 138.451 0.640665 0.591503 -0.03923
6.657047 138.451 0.615524 0.599143 0.018582
7.695757 138.451 0.533654 0.524656 0.011459
8.734467 138.451 0.477353 0.481865 -0.016374
9.773177 138.451 0.435578 0.46321 -0.029461
10.81189 138.451 0.406783 0.441088 -0.004313
11.8506 138.451 0.458257 0.442831 -0.002369
12.88931 138.451 0.57936 0.409924 -0.025288
13.92802 138.451 0.69001 0.377083 -0.046163
14.96673 138.451 0.698651 0.376773 -0.073277
16.00544 138.451 0.616068 0.402964 -0.024149
17.04415 138.451 0.483608 0.399542 0.007196
18.08286 138.451 0.444594 0.415813 0.007936
19.12157 138.451 0.438794 0.414162 -0.003929
20.16028 138.451 0.524441 0.451272 -0.00098
21.19899 138.451 0.479402 0.444949 -0.020685
22.2377 138.451 0.516713 0.377741 0.00364
23.27641 138.451 0.568658 0.38037 -0.011224
24.31512 138.451 0.559489 0.427575 -0.002405
25.35383 138.451 0.513038 0.460118 -0.021644
26.39254 138.451 0.474985 0.44768 -0.033053
27.43125 138.451 0.439091 0.467976 -0.019986
28.46996 138.451 0.396287 0.491946 -0.009397
29.50867 138.451 0.371099 0.479377 0.010066
30.54738 138.451 0.416534 0.445526 0.005807
31.58609 138.451 0.446935 0.367383 0.019779
32.6248 138.451 0.560131 0.432792 -0.024892
33.66351 138.451 0.580778 0.513756 -0.048913
34.70222 138.451 0.603379 0.570831 -0.059775
35.74093 138.451 0.574224 0.510541 -0.088545
36.77964 138.451 0.457966 0.478065 -0.141283
37.81835 138.451 0.424521 0.439644 -0.088349
38.85706 138.451 0.39805 0.37476 -0.025001
39.89577 138.451 0.744154 0.415249 -0.037716
40.93448 138.451 0.364509 0.414284 -0.045038
41.97319 138.451 0.466418 0.424366 -0.010459
43.0119 138.451 0.410696 0.449892 0.020518
44.05061 138.451 0.345149 0.474945 0.03272
45.08932 138.451 0.384608 0.546409 0.004041
46.12803 138.451 0.424649 0.512354 0.005991
47.16674 138.451 0.411344 0.417108 -0.004511
48.20545 138.451 0.430681 0.34772 -0.042512
49.24416 138.451 0.3598 0.320409 -0.045194
50.28287 138.451 0.307981 0.30753 -0.03033
51.32158 138.451 0.358429 0.352742 -0.019246
52.36029 138.451 0.344653 0.398396 -0.052767
53.399 138.451 0.38622 0.433012 -0.080002
54.43771 138.451 0.392148 0.458336 -0.080833
55.47642 138.451 0.419677 0.429954 -0.046303
56.51513 138.451 0.588078 0.379537 -0.081045
57.55384 138.451 0.552957 0.32562 -0.082961
58.59255 138.451 0.393325 0.315858 -0.037625
59.63126 138.451 0.352009 0.356925 -0.038506
60.66997 138.451 0.327948 0.420855 -0.012642
61.70868 138.451 0.292088 0.439679 -0.011947
62.74739 138.451 0.31896 0.44353 0.010907
63.7861 138.451 0.348707 0.444314 0.010206
64.82481 138.451 0.328036 0.431931 -0.003746
65.86352 138.451 0.328752 0.42539 -0.057495
66.90223 138.451 0.299417 0.387832 -0.085084
67.94094 138.451 0.287042 0.347377 -0.062707
68.97965 138.451 0.294858 0.358049 -0.011507
70.01836 138.451 0.328525 0.359952 -0.009449
71.05707 138.451 0.404868 0.392812 -0.034022
72.09578 138.451 0.410512 0.376982 -0.027218
73.13449 138.451 0.357493 0.381901 -0.040449
74.1732 138.451 0.331885 0.406019 -0.042201
75.21191 138.451 0.328256 0.43463 -0.052949
76.25062 138.451 0.290162 0.396547 -0.018186
77.28933 138.451 0.262127 0.372556 0.016011
78.32804 138.451 0.30539 0.373878 -0.016592
79.36675 138.451 0.320989 0.373846 -0.042768
80.40546 138.451 0.339479 0.357102 -0.071212
81.44417 138.451 0.396134 0.339204 -0.067356
82.48288 138.451 0.405458 0.313843 -0.069719
83.52159 138.451 0.40155 0.348606 -0.047489
84.5603 138.451 0.340169 0.361269 -0.024409
85.59901 138.451 0.687083 0.38296 0.024604
86.63772 138.451 0.297688 0.378183 -0.020936
87.67643 138.451 0.308645 0.347423 -0.071482
88.71514 138.451 0.3394 0.338853 -0.091943
89.75385 138.451 0.356844 0.354975 -0.052128
90.79256 138.451 0.293787 0.373412 -0.016783
91.83127 138.451 0.242919 0.398238 -0.047979
92.86998 138.451 0.266874 0.349774 -0.07165
93.90869 138.451 0.276536 0.351593 -0.055611
94.9474 138.451 0.272748 0.366465 -0.025354
95.98611 138.451 0.288889 0.393335 -0.02611
97.02482 138.451 0.307576 0.412776 -0.054697
98.06353 138.451 0.330985 0.433052 -0.073902
99.10224 138.451 0.358889 0.434274 -0.093092
100.1409 138.451 0.334192 0.449121 -0.051782
101.1797 138.451 0.325844 0.38172 -0.003235
102.2184 138.451 0.317059 0.332991 -0.027046
103.2571 138.451 0.359414 0.369548 -0.069199
104.2958 138.451 0.391042 0.355942 -0.098206
105.3345 138.451 0.435735 0.315403 0.002161
106.3732 138.451 0.373306 0.29176 0.037407
107.4119 138.451 0.308213 0.28098 -0.027623
108.4506 138.451 0.287915 0.266675 -0.062537
109.4893 138.451 0.283834 0.26577 -0.053481
110.528 138.451 0.280205 0.273531 -0.053585
111.5668 138.451 0.268615 0.305758 -0.050359
112.6055 138.451 0.273317 0.358522 -0.052175
113.6442 138.451 0.278972 0.389286 -0.062612
114.6829 138.451 0.273712 0.392689 -0.036369
115.7216 138.451 0.27847 0.346604 -0.026713
116.7603 138.451 0.312368 0.361926 -0.063313
117.799 138.451 0.331905 0.351176 -0.087545
118.8377 138.451 0.346859 0.349275 -0.06096
119.8764 138.451 0.330783 0.352717 -0.02021
120.9151 138.451 0.290489 0.370171 -0.028135
121.9539 138.451 0.304468 0.368097 -0.063246
122.9926 138.451 0.316497 0.35355 -0.062685
124.0313 138.451 0.300812 0.349114 -0.052718
125.07 138.451 0.283081 0.363369 -0.052406
126.1087 138.451 0.286247 0.392285 -0.036602
127.1474 138.451 0.287964 0.39745 -0.022985
128.1861 138.451 0.330564 0.38355 -0.024948
129.2248 138.451 0.33871 0.384504 -0.042701
130.2635 138.451 0.321855 0.365623 -0.056986
131.3022 138.451 0.294871 0.394445 -0.086524
132.341 138.451 0.317337 0.406073 -0.083047
133.3797 138.451 0.359538 0.396207 -0.068725
134.4184 138.451 0.389143 0.397362 -0.05902
135.4571 138.451 0.364612 0.411004 -0.027168
136.4958 138.451 0.371573 0.404934 -0.028323
137.5345 138.451 0.370779 0.325321 -0.016372
138.5732 138.451 0.343555 0.323009 -0.067931
139.6119 138.451 0.315794 0.309372 -0.076435
140.6506 138.451 0.306006 0.354199 -0.087914
141.6893 138.451 0.312712 0.413494 -0.093247
142.7281 138.451 0.336248 0.438147 -0.084257
143.7668 138.451 0.329646 0.459735 -0.09602
144.8055 138.451 0.360465 0.386357 -0.093989
145.8442 138.451 0.371403 0.399633 -0.110188
146.8829 138.451 0.35709 0.360833 -0.110015
147.9216 138.451 0.371739 0.317254 -0.103988
148.9603 138.451 0.333388 0.333785 -0.09542
149.999 138.451 0.346845 0.363193 -0.083146
151.0377 138.451 0.36212 0.395169 -0.097584
152.0764 138.451 0.342463 0.389225 -0.08887
153.1152 138.451 0.343982 0.340171 -0.056402
154.1539 138.451 0.332411 0.323564 -0.040514
155.1926 138.451 0.330672 0.343138 -0.027209
156.2313 138.451 0.281342 0.347269 -0.029627
157.27 138.451 0.293508 0.363489 -0.036528
158.3087 138.451 0.285232 0.376006 -0.016975
159.3474 138.451 0.290878 0.360351 -0.009419
160.3861 138.451 0.346377 0.318152 -0.031662
161.4248 138.451 0.321549 0.31541 -0.019941
162.4635 138.451 0.307001 0.31247 -0.025139
163.5023 138.451 0.290119 0.347982 -0.015939
164.541 138.451 0.292526 0.351939 -0.035147
165.5797 138.451 0.266974 0.313883 -0.042067
166.6184 138.451 0.280963 0.249237 -0.012872
167.6571 138.451 0.28115 0.242337 -0.028432
168.6958 138.451 0.34583 0.265462 -0.012727
169.7345 138.451 0.347917 0.263418 -0.040606
170.7732 138.451 0.310933 0.271685 -0.049791
171.8119 138.451 0.25069 0.269504 -0.031635
172.8506 138.451 0.225109 0.283206 -0.016874
173.8894 138.451 0.237326 0.27024 -0.03213
174.9281 138.451 0.279488 0.25285 -0.023177
175.9668 138.451 0.291291 0.262807 -0.020322
177.0055 138.451 0.300171 0.306556 -0.021967
178.0442 138.451 0.311941 0.319383 -0.02554
179.0829 138.451 0.312584 0.314936 -0.011833
180.1216 138.451 0.337435 0.298643 -0.020978
181.1603 138.451 0.34866 0.279414 -0.035751
182.199 138.451 0.349413 0.289845 -0.050273
183.2377 138.451 0.332008 0.262697 -0.038559
184.2765 138.451 0.294288 0.241908 -0.034991
185.3152 138.451 0.285295 0.238682 -0.020764
186.3539 138.451 0.244624 0.240438 -0.01067
187.3926 138.451 0.253695 0.235523 -0.013924
188.4313 138.451 0.268435 0.245572 -0.010817
189.47 138.451 0.272988 0.247279 -0.0236
190.5087 138.451 0.273698 0.242101 -0.047717
191.5474 138.451 0.278129 0.236319 -0.05664
192.5861 138.451 0.268843 0.252103 -0.049195
193.6248 138.451 0.244224 0.277218 -0.04257
194.6636 138.451 0.225709 0.27437 -0.02641
195.7023 138.451 0.208914 0.247182 -0.017491
196.741 138.451 0.212595 0.221951 -0.017944
197.7797 138.451 0.257637 0.238786 -0.035896
198.8184 138.451 0.313851 0.25511 -0.033446
199.8571 138.451 0.250078 0.207791 -0.027452
200.8958 138.451 0.099651 0.199782 -0.020894
201.9345 138.451 0 0 0
-154.343 137.4123 9.060156 43.22158 19.78874
-153.3043 137.4123 5.519302 8.185172 2.360863
-152.2656 137.4123 5.692645 7.715345 2.218081
-151.2269 137.4123 5.62643 6.834847 1.339754
-150.1882 137.4123 5.313262 4.950995 1.228532
-149.1495 137.4123 5.355943 4.43516 1.51707
-148.1107 137.4123 5.54458 4.80377 2.095661
-147.072 137.4123 5.019942 4.593555 1.655854
-146.0333 137.4123 4.502915 4.81263 1.444348
-144.9946 137.4123 4.050347 4.432569 1.449785
-143.9559 137.4123 4.034291 4.248077 1.382267
-142.9172 137.4123 3.882545 4.205648 1.093778
-141.8785 137.4123 3.808387 3.969948 1.093873
-140.8398 137.4123 4.136666 4.16132 1.4588
-139.8011 137.4123 3.893319 4.408775 1.546265
-138.7624 137.4123 4.306157 4.705079 1.727667
-137.7236 137.4123 4.226325 4.808368 1.641438
-136.6849 137.4123 3.493407 4.964246 1.360221
-135.6462 137.4123 3.36453 4.794921 1.052338
-134.6075 137.4123 3.231705 4.509442 0.653114
-133.5688 137.4123 3.138726 4.648591 0.943343
-132.5301 137.4123 3.007555 4.849873 0.980771
-131.4914 137.4123 2.905629 5.207809 1.050905
-130.4527 137.4123 2.860816 5.11091 1.008661
-129.414 137.4123 2.940834 5.218734 0.925563
-128.3753 137.4123 2.900281 5.094679 0.790069
-127.3365 137.4123 2.848859 4.974288 0.74871
-126.2978 137.4123 2.893496 4.85373 0.965912
-125.2591 137.4123 3.458984 4.489958 1.032365
-124.2204 137.4123 4.573104 4.786283 1.166465
-123.1817 137.4123 3.74157 4.433965 0.575071
-122.143 137.4123 3.712444 4.337934 0.705848
-121.1043 137.4123 3.356075 3.874434 0.725877
-120.0656 137.4123 3.817197 3.278341 0.151077
-119.0269 137.4123 3.378776 3.58228 0.136151
-117.9882 137.4123 3.243523 3.509432 0.241284
-116.9494 137.4123 2.922035 3.361224 0.671375
-115.9107 137.4123 3.060438 3.660225 0.819714
-114.872 137.4123 3.288985 3.899852 0.925557
-113.8333 137.4123 3.304614 4.158658 0.973797
-112.7946 137.4123 2.839828 4.580954 0.870894
-111.7559 137.4123 2.768101 4.363864 0.796642
-110.7172 137.4123 2.710012 3.6892 0.634877
-109.6785 137.4123 2.643515 3.013243 0.32722
-108.6398 137.4123 2.887966 2.79762 0.398452
-107.6011 137.4123 2.844048 3.025982 0.5839
-106.5623 137.4123 3.036319 3.146459 0.577548
-105.5236 137.4123 3.049994 3.062047 0.596385
-104.4849 137.4123 2.760185 2.749415 0.687358
-103.4462 137.4123 2.513156 3.598202 1.094074
-102.4075 137.4123 3.000387 5.4155 0.804806
-101.3688 137.4123 2.618775 3.957088 0.322048
-100.3301 137.4123 2.918273 3.388225 0.216854
-99.29137 137.4123 2.474366 2.42743 0.241208
-98.25266 137.4123 2.621114 2.446506 -0.239389
-97.21395 137.4123 3.985409 2.087162 0.060802
-96.17524 137.4123 4.018263 1.968444 0.085143
-95.13653 137.4123 3.261432 3.226061 1.523731
-94.09782 137.4123 3.127267 3.324483 1.596576
-93.05911 137.4123 2.835464 2.124451 -0.025945
-92.0204 137.4123 3.505573 2.079456 -0.417847
-90.98169 137.4123 3.439244 2.058883 -0.215912
-89.94298 137.4123 2.874101 2.083292 0.226077
-88.90427 137.4123 2.093961 2.049392 0.470994
-87.86556 137.4123 1.800454 2.292061 0.561922
-86.82685 137.4123 1.728022 2.532945 0.419488
-85.78814 137.4123 1.623416 2.582065 0.288786
-84.74943 137.4123 1.529542 2.421103 0.248166
-83.71072 137.4123 1.487521 2.331367 0.306712
-82.67201 137.4123 1.382156 2.333878 0.459071
-81.6333 137.4123 1.601516 2.351003 0.517455
-80.59459 137.4123 1.606013 2.256215 0.520433
-79.55588 137.4123 1.549901 2.08044 0.46578
-78.51717 137.4123 1.476604 1.827407 0.464193
-77.47846 137.4123 1.52028 1.728226 0.399351
-76.43975 137.4123 1.568474 1.766168 0.422739
-75.40104 137.4123 1.629464 1.831911 0.497784
-74.36233 137.4123 1.624415 1.9041 0.615065
-73.32362 137.4123 1.642579 1.936498 0.588828
-72.28491 137.4123 1.780573 1.982891 0.532825
-71.2462 137.4123 1.622592 2.03745 0.395933
-70.20749 137.4123 1.97749 2.040546 0.398849
-69.16878 137.4123 2.019381 1.851526 0.369001
-68.13007 137.4123 1.919716 1.630387 0.229387
-67.09136 137.4123 1.558608 1.499115 0.135652
-66.05265 137.4123 1.446101 1.369621 0.092554
-65.01394 137.4123 1.415106 1.388341 0.162527
-63.97523 137.4123 1.354548 1.388842 0.176737
-62.93652 137.4123 1.346804 1.43709 0.124656
-61.89781 137.4123 1.273399 1.510861 0.089544
-60.8591 137.4123 1.331279 1.251855 0.103558
-59.82039 137.4123 1.456834 1.136683 0.109239
-58.78168 137.4123 1.483133 1.059368 0.126437
-57.74297 137.4123 1.440079 0.999949 0.09552
-56.70426 137.4123 1.272926 0.990537 0.100256
-55.66555 137.4123 1.088937 0.992951 0.097707
-54.62684 137.4123 1.008103 1.015737 0.113954
-53.58813 137.4123 1.116548 1.081055 0.077705
-52.54942 137.4123 1.189754 1.207125 0.082212
-51.51071 137.4123 1.183635 1.322365 0.070637
-50.472 137.4123 1.19892 1.373428 0.039667
-49.43329 137.4123 1.187368 1.266871 0.055398
-48.39458 137.4123 1.099421 1.221942 0.062656
-47.35587 137.4123 1.125052 1.16303 0.013023
-46.31716 137.4123 1.102605 1.119688 -0.014567
-45.27845 137.4123 1.037645 1.084314 -0.024276
-44.23974 137.4123 0.956173 1.07391 0.011872
-43.20103 137.4123 0.916806 1.124393 0.094653
-42.16232 137.4123 0.89194 1.070106 0.095677
-41.12361 137.4123 0.88515 1.020348 0.079648
-40.0849 137.4123 0.802393 0.957588 0.081925
-39.04619 137.4123 0.816727 0.945733 0.094453
-38.00748 137.4123 0.842919 0.904969 0.103087
-36.96877 137.4123 0.935929 0.934073 0.102028
-35.93006 137.4123 1.00555 0.981159 0.146637
-34.89135 137.4123 0.983318 0.9901 0.177634
-33.85264 137.4123 1.207675 1.024236 0.276399
-32.81393 137.4123 1.240085 0.980596 0.266415
-31.77522 137.4123 1.320446 0.908382 0.332432
-30.73651 137.4123 0.889826 0.790298 0.162914
-29.6978 137.4123 0.84293 0.726072 0.111689
-28.65909 137.4123 0.806174 0.7074 0.065437
-27.62038 137.4123 0.795856 0.673624 0.078201
-26.58167 137.4123 0.769932 0.644463 0.095868
-25.54296 137.4123 0.750356 0.64153 0.121728
-24.50425 137.4123 0.684337 0.678268 0.151583
-23.46554 137.4123 0.686947 0.688024 0.135734
-22.42683 137.4123 0.735539 0.700385 0.123174
-21.38812 137.4123 0.732628 0.693419 0.116395
-20.34941 137.4123 0.684135 0.656411 0.099028
-19.3107 137.4123 0.708332 0.619425 0.114685
-18.27199 137.4123 0.782772 0.611261 0.119703
-17.23328 137.4123 0.727807 0.609385 0.046783
-16.19457 137.4123 0.691639 0.595416 -0.015378
-15.15586 137.4123 0.64044 0.564652 -0.065104
-14.11715 137.4123 0.61373 0.503691 -0.068959
-13.07844 137.4123 0.587244 0.470747 -0.021221
-12.03973 137.4123 0.591046 0.522696 -0.013775
-11.00102 137.4123 0.591822 0.543198 -0.011482
-9.962313 137.4123 0.591126 0.561904 -0.016769
-8.923603 137.4123 0.649642 0.567184 -0.046647
-7.884893 137.4123 0.708133 0.528468 -0.075395
-6.846183 137.4123 0.74046 0.495842 -0.105266
-5.807473 137.4123 0.691575 0.481574 -0.097639
-4.768763 137.4123 0.590585 0.528214 -0.089674
-3.730053 137.4123 0.555455 0.620877 -0.029793
-2.691343 137.4123 0.59193 0.621993 0.017698
-1.652633 137.4123 0.564952 0.550456 0.011615
-0.613923 137.4123 0.557178 0.476992 -0.010701
0.424787 137.4123 0.591013 0.470476 0.014941
1.463497 137.4123 0.580239 0.429103 0.032948
2.502207 137.4123 0.492257 0.401205 0.000892
3.540917 137.4123 0.468556 0.415127 -0.029615
4.579627 137.4123 0.502023 0.43499 -0.051233
5.618337 137.4123 0.518942 0.486549 -0.00564
6.657047 137.4123 0.495274 0.486121 0.026963
7.695757 137.4123 0.475075 0.44489 -0.000764
8.734467 137.4123 0.401211 0.436609 -0.042521
9.773177 137.4123 0.347564 0.394476 -0.054701
10.81189 137.4123 0.307019 0.381111 -0.000182
11.8506 137.4123 0.359939 0.371381 0.01488
12.88931 137.4123 0.450469 0.341666 -0.007866
13.92802 137.4123 0.535553 0.318754 -0.035715
14.96673 137.4123 0.565327 0.30984 -0.05975
16.00544 137.4123 0.523067 0.3229 -0.02602
17.04415 137.4123 0.434104 0.334782 -0.012076
18.08286 137.4123 0.378684 0.341337 -0.021179
19.12157 137.4123 0.379351 0.351919 -0.005691
20.16028 137.4123 0.411921 0.358525 0.013781
21.19899 137.4123 0.417586 0.35527 0.012625
22.2377 137.4123 0.418422 0.29693 0.021842
23.27641 137.4123 0.433333 0.293291 0.015476
24.31512 137.4123 0.449266 0.3484 -0.00296
25.35383 137.4123 0.412893 0.381988 -0.01519
26.39254 137.4123 0.384083 0.405347 -0.022208
27.43125 137.4123 0.375826 0.401568 -0.027091
28.46996 137.4123 0.338402 0.398149 -0.002695
29.50867 137.4123 0.321145 0.370602 -0.003517
30.54738 137.4123 0.345613 0.35431 0.000236
31.58609 137.4123 0.372944 0.316843 0.016658
32.6248 137.4123 0.418791 0.334121 -0.005566
33.66351 137.4123 0.427276 0.41566 -0.059089
34.70222 137.4123 0.45108 0.451687 -0.037526
35.74093 137.4123 0.378893 0.402371 -0.094222
36.77964 137.4123 0.362585 0.362207 -0.119489
37.81835 137.4123 0.326401 0.300663 -0.066815
38.85706 137.4123 0.296133 0.28051 -0.017798
39.89577 137.4123 0.300704 0.315542 -0.025152
40.93448 137.4123 0.293992 0.320199 -0.040105
41.97319 137.4123 0.304206 0.321948 -0.016898
43.0119 137.4123 0.298534 0.313685 0.02436
44.05061 137.4123 0.296757 0.359649 0.018722
45.08932 137.4123 0.30357 0.40643 -0.029262
46.12803 137.4123 0.350768 0.41441 -0.017686
47.16674 137.4123 0.370696 0.345611 -0.010964
48.20545 137.4123 0.341195 0.274173 -0.047134
49.24416 137.4123 0.316124 0.25244 -0.049981
50.28287 137.4123 0.257541 0.257417 -0.028471
51.32158 137.4123 0.250536 0.269993 -0.019887
52.36029 137.4123 0.273544 0.321168 -0.034124
53.399 137.4123 0.307439 0.350463 -0.044194
54.43771 137.4123 0.317325 0.370187 -0.046202
55.47642 137.4123 0.30288 0.35126 -0.018368
56.51513 137.4123 0.38064 0.30533 -0.045142
57.55384 137.4123 0.476987 0.275135 -0.095173
58.59255 137.4123 0.298544 0.259945 -0.043529
59.63126 137.4123 0.279794 0.304694 -0.046855
60.66997 137.4123 0.250263 0.336154 -0.035182
61.70868 137.4123 0.228549 0.335582 -0.021313
62.74739 137.4123 0.232096 0.325045 -0.002086
63.7861 137.4123 0.273413 0.32348 0.005501
64.82481 137.4123 0.287201 0.338591 -0.018935
65.86352 137.4123 0.261753 0.344004 -0.055556
66.90223 137.4123 0.226563 0.304637 -0.078819
67.94094 137.4123 0.219912 0.2827 -0.068877
68.97965 137.4123 0.222015 0.286656 -0.028787
70.01836 137.4123 0.26519 0.286448 -0.019199
71.05707 137.4123 0.321793 0.283183 -0.026702
72.09578 137.4123 0.327482 0.28919 -0.016707
73.13449 137.4123 0.27049 0.298496 -0.016193
74.1732 137.4123 0.257434 0.321806 -0.021883
75.21191 137.4123 0.276438 0.356627 -0.015516
76.25062 137.4123 0.242289 0.323323 -0.018723
77.28933 137.4123 0.216717 0.28343 0.006171
78.32804 137.4123 0.226303 0.29655 -0.008691
79.36675 137.4123 0.219004 0.293544 -0.035957
80.40546 137.4123 0.242317 0.291155 -0.057393
81.44417 137.4123 0.273079 0.260961 -0.054413
82.48288 137.4123 0.315288 0.240327 -0.052192
83.52159 137.4123 0.277415 0.270781 -0.051123
84.5603 137.4123 0.25243 0.291998 -0.030055
85.59901 137.4123 0.246032 0.311534 -0.018785
86.63772 137.4123 0.216034 0.296181 -0.021777
87.67643 137.4123 0.240206 0.288841 -0.065289
88.71514 137.4123 0.279456 0.261001 -0.080432
89.75385 137.4123 0.268201 0.268558 -0.045793
90.79256 137.4123 0.21921 0.303197 -0.035048
91.83127 137.4123 0.179776 0.29459 -0.046167
92.86998 137.4123 0.195782 0.266178 -0.042524
93.90869 137.4123 0.210008 0.271546 -0.036683
94.9474 137.4123 0.194192 0.298708 -0.011379
95.98611 137.4123 0.209102 0.304531 -0.017791
97.02482 137.4123 0.23699 0.317407 -0.044352
98.06353 137.4123 0.230102 0.303851 -0.067158
99.10224 137.4123 0.271719 0.330998 -0.060927
100.1409 137.4123 0.26255 0.314907 -0.038904
101.1797 137.4123 0.25674 0.298971 -0.001009
102.2184 137.4123 0.247768 0.286839 -0.01454
103.2571 137.4123 0.257193 0.293963 -0.04884
104.2958 137.4123 0.292478 0.271801 -0.07094
105.3345 137.4123 0.348363 0.250648 0.010811
106.3732 137.4123 0.312521 0.233891 0.03593
107.4119 137.4123 0.249754 0.222431 -0.008293
108.4506 137.4123 0.240919 0.222736 -0.046285
109.4893 137.4123 0.233386 0.232077 -0.036811
110.528 137.4123 0.220146 0.22543 -0.040348
111.5668 137.4123 0.198731 0.24854 -0.031611
112.6055 137.4123 0.203744 0.30301 -0.043306
113.6442 137.4123 0.215072 0.315575 -0.057875
114.6829 137.4123 0.205207 0.298053 -0.028874
115.7216 137.4123 0.209593 0.279832 -0.028197
116.7603 137.4123 0.228318 0.26444 -0.074613
117.799 137.4123 0.22003 0.25843 -0.072673
118.8377 137.4123 0.237726 0.252605 -0.044896
119.8764 137.4123 0.233413 0.26367 -0.002687
120.9151 137.4123 0.230585 0.275614 -0.001226
121.9539 137.4123 0.207417 0.280401 -0.03578
122.9926 137.4123 0.227428 0.276393 -0.034355
124.0313 137.4123 0.230564 0.272728 -0.041488
125.07 137.4123 0.214854 0.273191 -0.058116
126.1087 137.4123 0.21925 0.282544 -0.044961
127.1474 137.4123 0.220455 0.299872 -0.018099
128.1861 137.4123 0.230038 0.300978 -0.019964
129.2248 137.4123 0.237986 0.294835 -0.037438
130.2635 137.4123 0.22331 0.274922 -0.039672
131.3022 137.4123 0.207701 0.285273 -0.065236
132.341 137.4123 0.261352 0.308986 -0.087579
133.3797 137.4123 0.273525 0.294047 -0.061715
134.4184 137.4123 0.283229 0.301192 -0.053289
135.4571 137.4123 0.267719 0.315173 -0.031592
136.4958 137.4123 0.245866 0.287799 -0.034262
137.5345 137.4123 0.248925 0.255287 -0.039324
138.5732 137.4123 0.250535 0.241746 -0.059739
139.6119 137.4123 0.219078 0.23118 -0.050105
140.6506 137.4123 0.232325 0.277763 -0.081194
141.6893 137.4123 0.227919 0.329806 -0.0882
142.7281 137.4123 0.238384 0.345628 -0.08335
143.7668 137.4123 0.256234 0.318433 -0.074591
144.8055 137.4123 0.306128 0.283305 -0.087145
145.8442 137.4123 0.324153 0.306833 -0.101809
146.8829 137.4123 0.301744 0.282879 -0.098386
147.9216 137.4123 0.251616 0.261998 -0.085001
148.9603 137.4123 0.242632 0.269891 -0.094803
149.999 137.4123 0.259779 0.296059 -0.086315
151.0377 137.4123 0.303229 0.317369 -0.102789
152.0764 137.4123 0.279636 0.302787 -0.07346
153.1152 137.4123 0.28032 0.283309 -0.059278
154.1539 137.4123 0.263515 0.259616 -0.049198
155.1926 137.4123 0.239569 0.261479 -0.029675
156.2313 137.4123 0.212626 0.267698 -0.024855
157.27 137.4123 0.215904 0.27612 -0.027707
158.3087 137.4123 0.209138 0.277623 -0.017943
159.3474 137.4123 0.200233 0.27509 -0.003068
160.3861 137.4123 0.215915 0.261019 -0.02146
161.4248 137.4123 0.242247 0.245657 -0.030784
162.4635 137.4123 0.225491 0.244509 -0.023465
163.5023 137.4123 0.199986 0.247602 -0.02342
164.541 137.4123 0.202452 0.266438 -0.037285
165.5797 137.4123 0.194061 0.25465 -0.045598
166.6184 137.4123 0.172433 0.20997 -0.039528
167.6571 137.4123 0.207827 0.198064 -0.021903
168.6958 137.4123 0.256351 0.207889 -0.017147
169.7345 137.4123 0.260138 0.21326 -0.026133
170.7732 137.4123 0.22534 0.197176 -0.034255
171.8119 137.4123 0.187143 0.185888 -0.031412
172.8506 137.4123 0.166059 0.209312 -0.018309
173.8894 137.4123 0.180287 0.212839 -0.015707
174.9281 137.4123 0.213873 0.187176 -0.011285
175.9668 137.4123 0.214304 0.205898 -0.005714
177.0055 137.4123 0.21531 0.229467 -0.021473