TITLE = "B00001"
VARIABLES = "x", "y", "Avg V-x", "Avg V-y"
ZONE T="Frame 0", I=344, J=260
-154.342646 138.450647 0.000000 0.000000
-153.303938 138.450647 -17.580366 0.558670
-152.265230 138.450647 -17.942009 0.507085
-151.226522 138.450647 -18.257414 0.563057
-150.187814 138.450647 -18.451582 0.508152
-149.149106 138.450647 -18.511658 0.420963
-148.110398 138.450647 -18.465275 0.455143
-147.071690 138.450647 -18.376291 0.251365
-146.032982 138.450647 -18.220190 0.256391
-144.994274 138.450647 -17.955088 0.172269
-143.955566 138.450647 -18.099535 0.416276
-142.916858 138.450647 -18.297091 0.571737
-141.878150 138.450647 -18.296791 0.482425
-140.839442 138.450647 -18.396191 0.541710
-139.800734 138.450647 -18.407253 0.451820
-138.762026 138.450647 -18.418577 0.194269
-137.723318 138.450647 -18.830250 0.156077
-136.684610 138.450647 -19.047632 -0.027134
-135.645902 138.450647 -18.888281 0.041982
-134.607194 138.450647 -18.902292 0.268000
-133.568486 138.450647 -18.925875 0.543576
-132.529778 138.450647 -18.915718 0.258461
-131.491070 138.450647 -18.972631 0.180360
-130.452362 138.450647 -18.830891 0.148664
-129.413654 138.450647 -18.530016 0.273124
-128.374946 138.450647 -18.871748 0.245790
-127.336238 138.450647 -18.668777 0.332518
-126.297530 138.450647 -18.638350 0.374860
-125.258822 138.450647 -18.511948 0.411110
-124.220114 138.450647 -18.491013 0.368959
-123.181406 138.450647 -18.889790 0.355913
-122.142698 138.450647 -19.139441 0.338064
-121.103990 138.450647 -19.086040 0.572135
-120.065282 138.450647 -19.299322 0.419960
-119.026574 138.450647 -19.282499 0.202806
-117.987867 138.450647 -19.161324 0.365364
-116.949159 138.450647 -19.149878 0.258119
-115.910451 138.450647 -19.256191 0.280205
-114.871743 138.450647 -19.190748 0.383137
-113.833035 138.450647 -19.149565 0.291372
-112.794327 138.450647 -19.019756 0.406703
-111.755619 138.450647 -19.079260 0.440922
-110.716911 138.450647 -19.253593 0.395335
-109.678203 138.450647 -19.229334 0.385159
-108.639495 138.450647 -19.157330 0.371164
-107.600787 138.450647 -19.202143 0.385098
-106.562079 138.450647 -19.159842 0.480728
-105.523371 138.450647 -19.248526 0.565105
-104.484663 138.450647 -19.216120 0.402615
-103.445955 138.450647 -19.401720 0.373452
-102.407247 138.450647 -19.333633 0.416978
-101.368539 138.450647 -19.391436 0.447601
-100.329831 138.450647 -19.322380 0.525419
-99.291123 138.450647 -19.296402 0.462785
-98.252415 138.450647 -19.312119 0.507521
-97.213707 138.450647 -19.136896 0.610812
-96.174999 138.450647 -18.951372 0.610502
-95.136291 138.450647 -19.056984 0.474686
-94.097583 138.450647 -19.137844 0.756868
-93.058875 138.450647 -19.373154 0.416250
-92.020167 138.450647 -19.601347 0.766932
-90.981459 138.450647 -19.631033 0.438447
-89.942751 138.450647 -19.467001 0.423457
-88.904043 138.450647 -19.565727 0.425811
-87.865335 138.450647 -19.635834 0.350072
-86.826627 138.450647 -19.644680 0.318212
-85.787919 138.450647 -19.675175 0.416683
-84.749211 138.450647 -19.576094 0.400984
-83.710503 138.450647 -19.371223 0.575362
-82.671795 138.450647 -19.846786 0.622893
-81.633088 138.450647 -19.793148 0.656385
-80.594380 138.450647 -19.810852 0.587916
-79.555672 138.450647 -19.680929 0.563148
-78.516964 138.450647 -19.441671 0.603275
-77.478256 138.450647 -19.304920 0.528106
-76.439548 138.450647 -19.478937 0.380282
-75.400840 138.450647 -19.264538 0.416955
-74.362132 138.450647 -19.482805 0.504618
-73.323424 138.450647 -19.461306 0.562838
-72.284716 138.450647 -19.584898 0.561631
-71.246008 138.450647 -19.601400 0.629995
-70.207300 138.450647 -19.716034 0.739965
-69.168592 138.450647 -19.513779 0.876210
-68.129884 138.450647 -19.593487 0.801328
-67.091176 138.450647 -19.720606 0.826255
-66.052468 138.450647 -19.693171 0.741359
-65.013760 138.450647 -19.806973 0.906321
-63.975052 138.450647 -19.628756 1.055413
-62.936344 138.450647 -19.650190 0.897959
-61.897636 138.450647 -19.743559 0.813755
-60.858928 138.450647 -19.672562 0.943108
-59.820220 138.450647 -19.569277 0.957256
-58.781512 138.450647 -19.413458 1.068072
-57.742804 138.450647 -19.467838 1.092913
-56.704096 138.450647 -19.366156 1.030407
-55.665388 138.450647 -19.558062 1.013378
-54.626680 138.450647 -19.769867 1.135015
-53.587972 138.450647 -19.628696 1.031130
-52.549264 138.450647 -19.807917 1.040629
-51.510556 138.450647 -19.928354 0.901875
-50.471848 138.450647 -19.994581 1.073620
-49.433140 138.450647 -19.902233 1.119942
-48.394432 138.450647 -19.823671 1.249567
-47.355724 138.450647 -19.816021 0.980598
-46.317016 138.450647 -19.895401 0.776087
-45.278309 138.450647 -19.760752 0.754120
-44.239601 138.450647 -19.896360 0.722510
-43.200893 138.450647 -20.061333 0.836042
-42.162185 138.450647 -20.154558 0.902026
-41.123477 138.450647 -19.968884 0.666648
-40.084769 138.450647 -20.150948 0.587326
-39.046061 138.450647 -20.182741 0.557466
-38.007353 138.450647 -20.002167 0.742903
-36.968645 138.450647 -20.030338 0.799437
-35.929937 138.450647 -20.131346 0.739127
-34.891229 138.450647 -20.091015 0.776844
-33.852521 138.450647 -19.993845 0.846520
-32.813813 138.450647 -20.001345 0.818819
-31.775105 138.450647 -19.937122 1.049111
-30.736397 138.450647 -19.777922 1.216976
-29.697689 138.450647 -19.728899 1.063872
-28.658981 138.450647 -19.843866 1.131924
-27.620273 138.450647 -19.960133 1.186838
-26.581565 138.450647 -20.089285 1.235323
-25.542857 138.450647 -20.155083 1.173254
-24.504149 138.450647 -20.034014 1.188130
-23.465441 138.450647 -20.242859 1.182161
-22.426733 138.450647 -20.141106 1.274937
-21.388025 138.450647 -19.975554 1.378915
-20.349317 138.450647 -20.104914 1.337257
-19.310609 138.450647 -20.073009 1.267706
-18.271901 138.450647 -19.988918 1.178589
-17.233193 138.450647 -19.898603 1.131196
-16.194485 138.450647 -19.934744 1.097486
-15.155777 138.450647 -19.859299 1.119506
-14.117069 138.450647 -20.265640 1.062610
-13.078361 138.450647 -20.255093 1.166865
-12.039653 138.450647 -20.156630 1.187318
-11.000945 138.450647 -20.275686 1.202886
-9.962237 138.450647 -20.122272 1.325665
-8.923530 138.450647 -20.147257 1.478933
-7.884822 138.450647 -20.001492 1.481027
-6.846114 138.450647 -19.905590 1.536382
-5.807406 138.450647 -20.032534 1.468228
-4.768698 138.450647 -20.105831 1.548146
-3.729990 138.450647 -19.935019 1.746159
-2.691282 138.450647 -19.913301 1.385429
-1.652574 138.450647 -19.838675 1.322791
-0.613866 138.450647 -19.758429 1.386817
0.424842 138.450647 -20.098312 1.442436
1.463550 138.450647 -19.889561 1.451472
2.502258 138.450647 -20.012480 1.506435
3.540966 138.450647 -20.141535 1.494661
4.579674 138.450647 -19.900997 1.597427
5.618382 138.450647 -19.930771 1.636520
6.657090 138.450647 -19.998373 1.530576
7.695798 138.450647 -19.990473 1.404691
8.734506 138.450647 -20.018103 1.409488
9.773214 138.450647 -20.121447 1.411260
10.811922 138.450647 -20.302616 1.434914
11.850630 138.450647 -20.309317 1.416078
12.889338 138.450647 -20.322124 1.563153
13.928046 138.450647 -20.365162 1.682116
14.966754 138.450647 -20.399721 1.808458
16.005462 138.450647 -20.278746 1.816135
17.044170 138.450647 -20.257744 1.844432
18.082878 138.450647 -19.926405 1.850866
19.121586 138.450647 -20.068790 1.747672
20.160294 138.450647 -20.105196 1.679056
21.199002 138.450647 -20.270435 1.655927
22.237710 138.450647 -20.333481 1.701462
23.276418 138.450647 -20.241249 1.862807
24.315126 138.450647 -20.176725 1.808941
25.353834 138.450647 -20.283329 2.027385
26.392542 138.450647 -20.250240 1.979818
27.431249 138.450647 -20.161999 1.998294
28.469957 138.450647 -20.189121 1.976518
29.508665 138.450647 -20.215807 1.912649
30.547373 138.450647 -20.264189 1.873974
31.586081 138.450647 -20.110916 1.832546
32.624789 138.450647 -20.153717 1.861890
33.663497 138.450647 -20.114758 1.980027
34.702205 138.450647 -20.124512 1.983587
35.740913 138.450647 -19.874044 2.033392
36.779621 138.450647 -19.844481 1.964560
37.818329 138.450647 -20.027563 2.014896
38.857037 138.450647 -20.017265 2.089192
39.895745 138.450647 -20.063047 2.135027
40.934453 138.450647 -20.021202 2.163341
41.973161 138.450647 -20.098680 2.195146
43.011869 138.450647 -20.149576 2.245482
44.050577 138.450647 -20.129007 2.111511
45.089285 138.450647 -20.052589 2.057525
46.127993 138.450647 -20.032330 2.041609
47.166701 138.450647 -20.221638 2.007156
48.205409 138.450647 -20.120335 2.001132
49.244117 138.450647 -20.084057 2.176118
50.282825 138.450647 -20.011969 2.230295
51.321533 138.450647 -19.864927 2.308855
52.360241 138.450647 -20.099117 2.198697
53.398949 138.450647 -20.062908 2.035590
54.437657 138.450647 -20.135210 2.038865
55.476365 138.450647 -19.954773 2.034082
56.515073 138.450647 -20.010597 2.213272
57.553781 138.450647 -20.157042 2.397121
58.592489 138.450647 -20.134888 2.374790
59.631197 138.450647 -20.285370 2.363945
60.669905 138.450647 -20.231874 2.378483
61.708613 138.450647 -20.208433 2.466689
62.747321 138.450647 -20.359938 2.402647
63.786029 138.450647 -20.209030 2.432253
64.824736 138.450647 -20.316505 2.459472
65.863444 138.450647 -20.204327 2.624848
66.902152 138.450647 -20.162386 2.653048
67.940860 138.450647 -20.065090 2.629624
68.979568 138.450647 -19.908436 2.602178
70.018276 138.450647 -19.784153 2.534228
71.056984 138.450647 -19.764278 2.480657
72.095692 138.450647 -19.668760 2.670329
73.134400 138.450647 -19.728348 2.675596
74.173108 138.450647 -19.878040 2.632564
75.211816 138.450647 -19.978516 2.598451
76.250524 138.450647 -19.946321 2.562850
77.289232 138.450647 -19.877966 2.587204
78.327940 138.450647 -19.805706 2.513561
79.366648 138.450647 -19.704044 2.598973
80.405356 138.450647 -19.781933 2.707823
81.444064 138.450647 -19.699635 2.808744
82.482772 138.450647 -19.846298 2.918702
83.521480 138.450647 -19.818581 2.864071
84.560188 138.450647 -20.000452 2.936355
85.598896 138.450647 -20.052866 2.877436
86.637604 138.450647 -19.852831 2.758654
87.676312 138.450647 -19.779562 2.653864
88.715020 138.450647 -19.700747 2.749085
89.753728 138.450647 -19.601282 2.659648
90.792436 138.450647 -19.554565 2.714494
91.831144 138.450647 -19.626328 2.783110
92.869852 138.450647 -19.600681 2.654509
93.908560 138.450647 -19.643070 2.756279
94.947268 138.450647 -19.620958 2.831732
95.985976 138.450647 -19.573874 2.871358
97.024684 138.450647 -19.632189 2.929692
98.063392 138.450647 -19.632366 2.879383
99.102100 138.450647 -19.510525 2.921465
100.140808 138.450647 -19.503025 2.960078
101.179515 138.450647 -19.505589 2.875612
102.218223 138.450647 -19.512581 2.800070
103.256931 138.450647 -19.594509 2.846038
104.295639 138.450647 -19.552908 2.814065
105.334347 138.450647 -19.474438 2.837545
106.373055 138.450647 -19.485411 2.857937
107.411763 138.450647 -19.581049 2.760756
108.450471 138.450647 -19.560104 2.677301
109.489179 138.450647 -19.683920 2.700519
110.527887 138.450647 -19.599421 2.754966
111.566595 138.450647 -19.460466 2.776557
112.605303 138.450647 -19.536154 2.896861
113.644011 138.450647 -19.603615 2.985719
114.682719 138.450647 -19.681707 3.126718
115.721427 138.450647 -19.764486 3.041807
116.760135 138.450647 -19.526445 3.144133
117.798843 138.450647 -19.452324 3.217836
118.837551 138.450647 -19.340788 3.194041
119.876259 138.450647 -19.220646 3.060223
120.914967 138.450647 -19.351109 3.072942
121.953675 138.450647 -19.137419 3.054991
122.992383 138.450647 -19.178389 2.954804
124.031091 138.450647 -19.235878 2.916415
125.069799 138.450647 -19.268679 2.872648
126.108507 138.450647 -19.447121 3.040361
127.147215 138.450647 -19.547649 3.151457
128.185923 138.450647 -19.635344 3.227679
129.224631 138.450647 -19.533983 3.298450
130.263339 138.450647 -19.487059 3.274822
131.302047 138.450647 -19.439749 3.306329
132.340755 138.450647 -19.409588 3.323506
133.379463 138.450647 -19.305864 3.242589
134.418171 138.450647 -19.316658 3.157256
135.456879 138.450647 -19.391230 3.180631
136.495587 138.450647 -19.407797 3.206488
137.534294 138.450647 -19.404881 3.169307
138.573002 138.450647 -19.195225 3.119217
139.611710 138.450647 -19.172091 3.240874
140.650418 138.450647 -19.138716 3.211858
141.689126 138.450647 -18.986712 3.369453
142.727834 138.450647 -18.952953 3.165470
143.766542 138.450647 -18.921656 3.148373
144.805250 138.450647 -18.874119 3.171200
145.843958 138.450647 -18.818195 3.133124
146.882666 138.450647 -18.971918 3.165326
147.921374 138.450647 -18.996668 3.130214
148.960082 138.450647 -18.945202 3.109560
149.998790 138.450647 -18.957474 3.047894
151.037498 138.450647 -18.922449 3.130721
152.076206 138.450647 -18.862780 3.105727
153.114914 138.450647 -18.820925 3.143003
154.153622 138.450647 -18.810781 3.223960
155.192330 138.450647 -18.857771 3.252760
156.231038 138.450647 -18.924755 3.097221
157.269746 138.450647 -18.997936 2.926089
158.308454 138.450647 -19.067091 2.881317
159.347162 138.450647 -18.985237 2.873396
160.385870 138.450647 -18.927013 2.860530
161.424578 138.450647 -18.946741 2.976504
162.463286 138.450647 -19.039835 2.941767
163.501994 138.450647 -18.859343 2.995532
164.540702 138.450647 -18.821903 3.129659
165.579410 138.450647 -18.807871 3.266335
166.618118 138.450647 -18.785702 3.220284
167.656826 138.450647 -18.947561 3.159435
168.695534 138.450647 -18.867796 3.201723
169.734242 138.450647 -18.830639 3.071660
170.772950 138.450647 -18.841887 3.024504
171.811658 138.450647 -18.684921 2.944729
172.850366 138.450647 -18.602251 2.937377
173.889073 138.450647 -18.665205 2.874359
174.927781 138.450647 -18.747580 2.860022
175.966489 138.450647 -18.837717 2.818254
177.005197 138.450647 -18.814844 2.942544
178.043905 138.450647 -18.718039 3.065485
179.082613 138.450647 -18.599291 3.014576
180.121321 138.450647 -18.610216 2.946512
181.160029 138.450647 -18.587440 2.891357
182.198737 138.450647 -18.656130 2.953762
183.237445 138.450647 -18.668728 2.945381
184.276153 138.450647 -18.650517 2.989481
185.314861 138.450647 -18.639204 2.861355
186.353569 138.450647 -18.586456 2.846689
187.392277 138.450647 -18.545290 2.760322
188.430985 138.450647 -18.531517 2.747494
189.469693 138.450647 -18.394106 2.715387
190.508401 138.450647 -18.351934 2.738969
191.547109 138.450647 -18.364355 2.745814
192.585817 138.450647 -18.441963 2.631100
193.624525 138.450647 -18.403217 2.508983
194.663233 138.450647 -18.388767 2.464499
195.701941 138.450647 -18.371778 2.499200
196.740649 138.450647 -18.409073 2.547212
197.779357 138.450647 -18.424543 2.643262
198.818065 138.450647 -18.433558 2.711878
199.856773 138.450647 -18.455420 2.736726
200.895481 138.450647 -17.660618 2.666898
201.934189 138.450647 0.000000 0.000000
-154.342646 137.411939 0.000000 0.000000
-153.303938 137.411939 -17.626822 0.095871
-152.265230 137.411939 -18.070570 0.137415
-151.226522 137.411939 -18.142078 0.301809
-150.187814 137.411939 -18.258373 0.409464
-149.149106 137.411939 -18.399105 0.506590
-148.110398 137.411939 -18.151802 0.583470
-147.071690 137.411939 -18.233719 0.595893
-146.032982 137.411939 -17.966270 0.503916
-144.994274 137.411939 -18.017944 0.413213
-143.955566 137.411939 -18.168642 0.525147
-142.916858 137.411939 -18.249222 0.822812
-141.878150 137.411939 -18.219025 0.733164
-140.839442 137.411939 -18.326756 0.706090
-139.800734 137.411939 -18.385468 0.688185
-138.762026 137.411939 -18.573099 0.667958
-137.723318 137.411939 -18.944235 0.322066
-136.684610 137.411939 -18.783340 0.316533
-135.645902 137.411939 -18.854153 0.532409
-134.607194 137.411939 -19.014477 0.505321
-133.568486 137.411939 -19.181133 0.413684
-132.529778 137.411939 -19.001898 0.371180
-131.491070 137.411939 -19.026106 0.369088
-130.452362 137.411939 -18.779499 0.375005
-129.413654 137.411939 -18.611065 0.542190
-128.374946 137.411939 -18.939835 0.341099
-127.336238 137.411939 -18.985353 0.340882
-126.297530 137.411939 -18.679346 0.367401
-125.258822 137.411939 -18.682503 0.527324
-124.220114 137.411939 -18.587000 0.659457
-123.181406 137.411939 -18.788105 0.639839
-122.142698 137.411939 -19.112820 0.351221
-121.103990 137.411939 -19.206573 0.640146
-120.065282 137.411939 -19.305561 0.509319
-119.026574 137.411939 -19.169083 0.548001
-117.987867 137.411939 -18.957518 0.426933
-116.949159 137.411939 -19.144745 0.371670
-115.910451 137.411939 -19.046591 0.341249
-114.871743 137.411939 -19.208700 0.307914
-113.833035 137.411939 -18.998135 0.311352
-112.794327 137.411939 -18.960484 0.524317
-111.755619 137.411939 -19.057125 0.588612
-110.716911 137.411939 -19.184212 0.504594
-109.678203 137.411939 -19.061586 0.488331
-108.639495 137.411939 -19.158394 0.439731
-107.600787 137.411939 -19.007700 0.470184
-106.562079 137.411939 -19.157015 0.588949
-105.523371 137.411939 -19.181465 0.554942
-104.484663 137.411939 -19.464052 0.378948
-103.445955 137.411939 -19.530273 0.253199
-102.407247 137.411939 -19.573891 0.321516
-101.368539 137.411939 -19.531498 0.492734
-100.329831 137.411939 -19.570984 0.541180
-99.291123 137.411939 -19.348789 0.533818
-98.252415 137.411939 -19.173035 0.476110
-97.213707 137.411939 -19.137360 0.496516
-96.174999 137.411939 -19.091665 0.543789
-95.136291 137.411939 -19.134830 0.512650
-94.097583 137.411939 -19.260340 0.673295
-93.058875 137.411939 -19.636057 0.699118
-92.020167 137.411939 -19.563402 0.681589
-90.981459 137.411939 -19.581676 0.654241
-89.942751 137.411939 -19.664055 0.472262
-88.904043 137.411939 -19.541124 0.443743
-87.865335 137.411939 -19.549725 0.420414
-86.826627 137.411939 -19.668718 0.457053
-85.787919 137.411939 -19.726837 0.503647
-84.749211 137.411939 -19.728687 0.385699
-83.710503 137.411939 -19.626171 0.548288
-82.671795 137.411939 -19.800695 0.596399
-81.633088 137.411939 -19.874895 0.734889
-80.594380 137.411939 -19.754889 0.644012
-79.555672 137.411939 -19.639778 0.612686
-78.516964 137.411939 -19.619257 0.598551
-77.478256 137.411939 -19.538944 0.594821
-76.439548 137.411939 -19.549316 0.591820
-75.400840 137.411939 -19.517626 0.617211
-74.362132 137.411939 -19.472349 0.661374
-73.323424 137.411939 -19.607592 0.654349
-72.284716 137.411939 -19.621918 0.837311
-71.246008 137.411939 -19.591158 0.910194
-70.207300 137.411939 -19.632458 0.921034
-69.168592 137.411939 -19.692509 0.968285
-68.129884 137.411939 -19.659294 0.921731
-67.091176 137.411939 -19.808098 0.745077
-66.052468 137.411939 -19.828203 0.656211
-65.013760 137.411939 -19.755953 0.856970
-63.975052 137.411939 -19.587687 0.991687
-62.936344 137.411939 -19.407490 0.806232
-61.897636 137.411939 -19.694757 0.877897
-60.858928 137.411939 -19.711151 0.989483
-59.820220 137.411939 -19.529604 1.047441
-58.781512 137.411939 -19.401337 1.046153
-57.742804 137.411939 -19.393049 1.128269
-56.704096 137.411939 -19.400448 0.954759
-55.665388 137.411939 -19.546600 0.921476
-54.626680 137.411939 -19.876228 1.055813
-53.587972 137.411939 -19.822691 0.936366
-52.549264 137.411939 -19.845982 0.967925
-51.510556 137.411939 -19.945322 0.903919
-50.471848 137.411939 -20.002371 0.992609
-49.433140 137.411939 -19.919395 1.003862
-48.394432 137.411939 -19.862780 1.122016
-47.355724 137.411939 -19.909304 0.940783
-46.317016 137.411939 -19.886465 0.770178
-45.278309 137.411939 -19.837263 0.766024
-44.239601 137.411939 -19.985043 0.788875
-43.200893 137.411939 -20.177742 0.913038
-42.162185 137.411939 -20.081322 0.874656
-41.123477 137.411939 -20.147400 0.659377
-40.084769 137.411939 -20.186554 0.656550
-39.046061 137.411939 -20.071152 0.607988
-38.007353 137.411939 -20.006334 0.815421
-36.968645 137.411939 -20.031250 0.815063
-35.929937 137.411939 -19.952440 0.835815
-34.891229 137.411939 -20.012775 0.910890
-33.852521 137.411939 -19.942282 0.913186
-32.813813 137.411939 -20.011005 0.962680
-31.775105 137.411939 -19.986746 1.082307
-30.736397 137.411939 -19.773817 1.119150
-29.697689 137.411939 -19.804779 1.153603
-28.658981 137.411939 -19.930943 1.286225
-27.620273 137.411939 -19.971617 1.239630
-26.581565 137.411939 -20.188259 1.264191
-25.542857 137.411939 -20.159756 1.384966
-24.504149 137.411939 -20.196320 1.165837
-23.465441 137.411939 -20.164980 1.148931
-22.426733 137.411939 -20.020061 1.242012
-21.388025 137.411939 -20.039118 1.409359
-20.349317 137.411939 -20.130011 1.296512
-19.310609 137.411939 -20.179388 1.289036
-18.271901 137.411939 -20.115780 1.270947
-17.233193 137.411939 -19.965927 1.194113
-16.194485 137.411939 -19.904705 1.159332
-15.155777 137.411939 -20.039051 1.116257
-14.117069 137.411939 -20.027552 1.053686
-13.078361 137.411939 -20.161198 1.137759
-12.039653 137.411939 -20.181587 1.036093
-11.000945 137.411939 -20.301649 1.196847
-9.962237 137.411939 -20.191296 1.435421
-8.923530 137.411939 -20.226021 1.658628
-7.884822 137.411939 -19.988493 1.597617
-6.846114 137.411939 -20.008711 1.606498
-5.807406 137.411939 -19.964317 1.548301
-4.768698 137.411939 -20.103388 1.736956
-3.729990 137.411939 -19.990265 1.624066
-2.691282 137.411939 -20.027969 1.424994
-1.652574 137.411939 -19.798906 1.279945
-0.613866 137.411939 -19.862614 1.408646
0.424842 137.411939 -20.137455 1.429561
1.463550 137.411939 -20.179386 1.508241
2.502258 137.411939 -20.119787 1.608693
3.540966 137.411939 -20.053059 1.590060
4.579674 137.411939 -19.941349 1.583027
5.618382 137.411939 -20.097178 1.619745
6.657090 137.411939 -20.118685 1.570882
7.695798 137.411939 -20.020710 1.500558
8.734506 137.411939 -20.124701 1.348015
9.773214 137.411939 -20.160072 1.417372
10.811922 137.411939 -20.320074 1.495504
11.850630 137.411939 -20.349760 1.560324
12.889338 137.411939 -20.360439 1.509302
13.928046 137.411939 -20.292070 1.703445
14.966754 137.411939 -20.480640 1.964735
16.005462 137.411939 -20.253906 1.892592
17.044170 137.411939 -20.114044 1.992680
18.082878 137.411939 -20.111086 1.968442
19.121586 137.411939 -20.040573 1.773354
20.160294 137.411939 -20.096289 1.708776
21.199002 137.411939 -20.258245 1.652549
22.237710 137.411939 -20.216246 1.785967
23.276418 137.411939 -20.166283 1.967728
24.315126 137.411939 -20.262648 1.946830
25.353834 137.411939 -20.248140 2.003937
26.392542 137.411939 -20.265968 2.048926
27.431249 137.411939 -20.172251 1.998333
28.469957 137.411939 -20.288462 1.886624
29.508665 137.411939 -20.198969 1.803150
30.547373 137.411939 -20.205029 1.870900
31.586081 137.411939 -20.249104 1.814016
32.624789 137.411939 -20.209118 1.872231
33.663497 137.411939 -20.219213 1.949692
34.702205 137.411939 -20.072359 1.956708
35.740913 137.411939 -19.938959 2.043435
36.779621 137.411939 -19.867506 2.091180
37.818329 137.411939 -19.924637 2.145205
38.857037 137.411939 -19.988861 2.171790
39.895745 137.411939 -20.023235 2.250003
40.934453 137.411939 -19.909262 2.182098
41.973161 137.411939 -20.039410 2.149573
43.011869 137.411939 -20.220022 2.198318
44.050577 137.411939 -20.240719 2.160666
45.089285 137.411939 -20.151756 2.058584
46.127993 137.411939 -20.210819 2.098009
47.166701 137.411939 -20.153967 2.121520
48.205409 137.411939 -20.051777 2.123344
49.244117 137.411939 -20.128881 2.327265
50.282825 137.411939 -19.991322 2.274615
51.321533 137.411939 -19.989494 2.382525
52.360241 137.411939 -19.998198 2.189285
53.398949 137.411939 -19.990101 2.048746
54.437657 137.411939 -20.082375 2.048016
55.476365 137.411939 -19.994749 2.069083
56.515073 137.411939 -20.049732 2.329225
57.553781 137.411939 -20.171568 2.422882
58.592489 137.411939 -20.143160 2.458360
59.631197 137.411939 -20.198898 2.473480
60.669905 137.411939 -20.167641 2.444417
61.708613 137.411939 -20.236832 2.454517
62.747321 137.411939 -20.233879 2.514636
63.786029 137.411939 -20.255297 2.494759
64.824736 137.411939 -20.363199 2.552303
65.863444 137.411939 -20.220711 2.522548
66.902152 137.411939 -20.075085 2.592890
67.940860 137.411939 -19.978487 2.638151
68.979568 137.411939 -19.848680 2.560589
70.018276 137.411939 -19.772383 2.630738
71.056984 137.411939 -19.788124 2.655702
72.095692 137.411939 -19.761629 2.692224
73.134400 137.411939 -19.837921 2.721157
74.173108 137.411939 -19.925621 2.703176
75.211816 137.411939 -19.922947 2.621310
76.250524 137.411939 -20.006664 2.585692
77.289232 137.411939 -19.935875 2.578177
78.327940 137.411939 -19.819691 2.520850
79.366648 137.411939 -19.866510 2.567937
80.405356 137.411939 -19.847849 2.601691
81.444064 137.411939 -19.889347 2.682990
82.482772 137.411939 -19.995253 2.745327
83.521480 137.411939 -19.913965 2.885773
84.560188 137.411939 -19.986015 2.859002
85.598896 137.411939 -19.978609 2.879863
86.637604 137.411939 -19.843760 2.872479
87.676312 137.411939 -19.790461 2.825038
88.715020 137.411939 -19.672342 2.800355
89.753728 137.411939 -19.545544 2.721193
90.792436 137.411939 -19.588917 2.695221
91.831144 137.411939 -19.641048 2.698257
92.869852 137.411939 -19.698280 2.803094
93.908560 137.411939 -19.588564 2.804007
94.947268 137.411939 -19.659323 2.898490
95.985976 137.411939 -19.665779 2.940906
97.024684 137.411939 -19.730497 2.910607
98.063392 137.411939 -19.544075 2.875014
99.102100 137.411939 -19.592291 3.089542
100.140808 137.411939 -19.571564 2.960167
101.179515 137.411939 -19.595425 2.957527
102.218223 137.411939 -19.697815 2.958486
103.256931 137.411939 -19.576759 2.871828
104.295639 137.411939 -19.587475 2.901135
105.334347 137.411939 -19.429049 2.988802
106.373055 137.411939 -19.572676 2.915781
107.411763 137.411939 -19.573051 2.785406
108.450471 137.411939 -19.618681 2.726644
109.489179 137.411939 -19.704582 2.766731
110.527887 137.411939 -19.639727 2.860551
111.566595 137.411939 -19.518293 2.890793
112.605303 137.411939 -19.536404 2.914258
113.644011 137.411939 -19.609644 2.993956
114.682719 137.411939 -19.592705 3.067652
115.721427 137.411939 -19.688366 3.122738
116.760135 137.411939 -19.647333 3.207342
117.798843 137.411939 -19.480591 3.203673
118.837551 137.411939 -19.396109 3.220953
119.876259 137.411939 -19.398241 3.197748
120.914967 137.411939 -19.362686 3.097069
121.953675 137.411939 -19.293821 3.078205
122.992383 137.411939 -19.224552 3.006660
124.031091 137.411939 -19.304552 2.961545
125.069799 137.411939 -19.393982 2.928353
126.108507 137.411939 -19.525021 3.114947
127.147215 137.411939 -19.602177 3.259628
128.185923 137.411939 -19.473049 3.327091
129.224631 137.411939 -19.446283 3.387951
130.263339 137.411939 -19.450445 3.339281
131.302047 137.411939 -19.347078 3.355837
132.340755 137.411939 -19.338297 3.381188
133.379463 137.411939 -19.347843 3.295846
134.418171 137.411939 -19.372568 3.184252
135.456879 137.411939 -19.396500 3.257809
136.495587 137.411939 -19.433277 3.197696
137.534294 137.411939 -19.356943 3.107542
138.573002 137.411939 -19.269053 3.176227
139.611710 137.411939 -19.047314 3.211815
140.650418 137.411939 -18.972109 3.311801
141.689126 137.411939 -18.927170 3.329399
142.727834 137.411939 -18.970682 3.259822
143.766542 137.411939 -18.911644 3.199507
144.805250 137.411939 -18.858337 3.178569
145.843958 137.411939 -18.777077 3.161171
146.882666 137.411939 -18.916416 3.228640
147.921374 137.411939 -18.970028 3.165888
148.960082 137.411939 -18.975334 3.132113
149.998790 137.411939 -18.978930 3.092756
151.037498 137.411939 -18.913015 3.094300
152.076206 137.411939 -18.935808 3.067323
153.114914 137.411939 -18.928381 3.201287
154.153622 137.411939 -18.852026 3.193996
155.192330 137.411939 -18.848734 3.201700
156.231038 137.411939 -18.943501 3.093158
157.269746 137.411939 -18.999556 2.937685
158.308454 137.411939 -19.048639 2.883706
159.347162 137.411939 -19.016178 2.918225
160.385870 137.411939 -18.933811 2.942410
161.424578 137.411939 -18.932831 2.925108
162.463286 137.411939 -18.948801 2.958638
163.501994 137.411939 -18.831276 3.022803
164.540702 137.411939 -18.737242 3.114028
165.579410 137.411939 -18.758915 3.289788
166.618118 137.411939 -18.819225 3.262501
167.656826 137.411939 -18.811451 3.168298
168.695534 137.411939 -18.844667 3.185120
169.734242 137.411939 -18.802052 3.128937
170.772950 137.411939 -18.765383 3.065390
171.811658 137.411939 -18.677982 2.967005
172.850366 137.411939 -18.539520 2.986897
173.889073 137.411939 -18.646143 2.961209
174.927781 137.411939 -18.781424 2.913644
175.966489 137.411939 -18.852007 2.912366
177.005197 137.411939 -18.911087 2.964331
178.043905 137.411939 -18.774300 3.013086
179.082613 137.411939 -18.594343 2.986422
180.121321 137.411939 -18.575661 2.921044
181.160029 137.411939 -18.607481 2.847805
182.198737 137.411939 -18.618340 2.863568
183.237445 137.411939 -18.610584 2.953401
184.276153 137.411939 -18.571596 2.907891
185.314861 137.411939 -18.591692 2.897721
186.353569 137.411939 -18.599682 2.896765
187.392277 137.411939 -18.524469 2.788030
188.430985 137.411939 -18.453098 2.762473
189.469693 137.411939 -18.382145 2.742635
190.508401 137.411939 -18.363655 2.752764
191.547109 137.411939 -18.413170 2.730629
192.585817 137.411939 -18.445309 2.664390
193.624525 137.411939 -18.427765 2.554723
194.663233 137.411939 -18.365402 2.524789
195.701941 137.411939 -18.349951 2.533799
196.740649 137.411939 -18.424099 2.598317
197.779357 137.411939 -18.431835 2.642175
198.818065 137.411939 -18.434227 2.724912
199.856773 137.411939 -18.407511 2.769336
200.895481 137.411939 -17.705324 2.730479
201.934189 137.411939 0.000000 0.000000
-154.342646 136.373231 0.000000 0.000000
-153.303938 136.373231 -17.589737 0.295291
-152.265230 136.373231 -17.983652 0.242386
-151.226522 136.373231 -18.142134 0.435316
-150.187814 136.373231 -18.242105 0.615496
-149.149106 136.373231 -18.382534 0.678606
-148.110398 136.373231 -18.308973 0.780343
-147.071690 136.373231 -18.001167 0.605206
-146.032982 136.373231 -18.144358 0.568469
-144.994274 136.373231 -18.200304 0.532249
-143.955566 136.373231 -18.353113 0.620157
-142.916858 136.373231 -18.322266 0.779640
-141.878150 136.373231 -18.379704 0.489500
-140.839442 136.373231 -18.564514 0.602272
-139.800734 136.373231 -18.728502 0.542178
-138.762026 136.373231 -18.644407 0.619974
-137.723318 136.373231 -18.855761 0.552396
-136.684610 136.373231 -19.085117 0.425994
-135.645902 136.373231 -19.122595 0.416702
-134.607194 136.373231 -19.210751 0.377612
-133.568486 136.373231 -19.301626 0.389547
-132.529778 136.373231 -19.143892 0.325215
-131.491070 136.373231 -18.902481 0.489833
-130.452362 136.373231 -18.877113 0.524202
-129.413654 136.373231 -18.821152 0.598826
-128.374946 136.373231 -18.903725 0.436095