TITLE="velocity" 
VARIABLES="X","Y","Z","StD_U","StD_V","StD_W" 
ZONE T="StD_16_position7", J= 64 , I= 53 , K= 1 
0 0 2  0.00000  0.00000  0.00000 
-3.365167e+01 50 2  0.00000  0.00000  0.00000 
-3.230334e+01 50 2  0.00000  0.00000  0.00000 
-3.095501e+01 50 2  0.00000  0.00000  0.00000 
-2.960668e+01 50 2  0.00000  0.00000  0.00000 
-2.825835e+01 50 2  0.00000  0.00000  0.00000 
-2.691002e+01 50 2  0.00000  0.00000  0.00000 
-2.556169e+01 50 2  0.00000  0.00000  0.00000 
-2.421336e+01 50 2  0.00000  0.00000  0.00000 
-2.286503e+01 50 2  0.00000  0.00000  0.00000 
-2.151670e+01 50 2  0.00000  0.00000  0.00000 
-2.016837e+01 50 2  0.00000  0.00000  0.00000 
-1.882004e+01 50 2  0.00000  0.00000  0.00000 
-1.747171e+01 50 2  0.00000  0.00000  0.00000 
-1.612338e+01 50 2  0.00000  0.00000  0.00000 
-1.477505e+01 50 2  0.00000  0.00000  0.00000 
-1.342672e+01 50 2  0.00000  0.00000  0.00000 
-1.207840e+01 50 2  0.00000  0.00000  0.00000 
-1.073007e+01 50 2  0.00000  0.00000  0.00000 
-9.381736e+00 50 2  0.00000  0.00000  0.00000 
-8.033406e+00 50 2  0.00000  0.00000  0.00000 
-6.685076e+00 50 2  0.00000  0.00000  0.00000 
-5.336747e+00 50 2  0.00000  0.00000  0.00000 
-3.988417e+00 50 2  0.00000  0.00000  0.00000 
-2.640087e+00 50 2  0.00000  0.00000  0.00000 
-1.291758e+00 50 2  0.00000  0.00000  0.00000 
5.657220e-02 50 2  0.00000  0.00000  0.00000 
1.404902e+00 50 2  0.00000  0.00000  0.00000 
2.753232e+00 50 2  0.00000  0.00000  0.00000 
4.101561e+00 50 2  0.00000  0.00000  0.00000 
5.449891e+00 50 2  0.00000  0.00000  0.00000 
6.798221e+00 50 2  0.00000  0.00000  0.00000 
8.146550e+00 50 2  0.00000  0.00000  0.00000 
9.494880e+00 50 2  0.00000  0.00000  0.00000 
1.084321e+01 50 2  0.00000  0.00000  0.00000 
1.219154e+01 50 2  0.00000  0.00000  0.00000 
1.353987e+01 50 2  0.00000  0.00000  0.00000 
1.488820e+01 50 2  0.00000  0.00000  0.00000 
1.623653e+01 50 2  0.00000  0.00000  0.00000 
1.758486e+01 50 2  0.00000  0.00000  0.00000 
1.893319e+01 50 2  0.00000  0.00000  0.00000 
2.028152e+01 50 2  0.00000  0.00000  0.00000 
2.162985e+01 50 2  0.00000  0.00000  0.00000 
2.297818e+01 50 2  0.00000  0.00000  0.00000 
2.432651e+01 50 2  0.00000  0.00000  0.00000 
2.567484e+01 50 2  0.00000  0.00000  0.00000 
2.702317e+01 50 2  0.00000  0.00000  0.00000 
2.837150e+01 50 2  0.00000  0.00000  0.00000 
2.971983e+01 50 2  0.00000  0.00000  0.00000 
3.106816e+01 50 2  0.00000  0.00000  0.00000 
3.241648e+01 50 2  0.00000  0.00000  0.00000 
3.376481e+01 50 2  0.00000  0.00000  0.00000 
3.511314e+01 50 2  0.00000  0.00000  0.00000 
-35 5.134833e+01 2  0.00000  0.00000  0.00000 
-3.365167e+01 5.134833e+01 2  0.00000  0.00000  0.00000 
-3.230334e+01 5.134833e+01 2  0.00000  0.00000  0.00000 
-3.095501e+01 5.134833e+01 2  0.00000  0.00000  0.00000 
-2.960668e+01 5.134833e+01 2  0.00000  0.00000  0.00000 
-2.825835e+01 5.134833e+01 2  0.00000  0.00000  0.00000 
-2.691002e+01 5.134833e+01 2  0.00000  0.00000  0.00000 
-2.556169e+01 5.134833e+01 2  0.00000  0.00000  0.00000 
-2.421336e+01 5.134833e+01 2  0.00000  0.00000  0.00000 
-2.286503e+01 5.134833e+01 2  0.00000  0.00000  0.00000 
-2.151670e+01 5.134833e+01 2  0.00000  0.00000  0.00000 
-2.016837e+01 5.134833e+01 2  0.00000  0.00000  0.00000 
-1.882004e+01 5.134833e+01 2  0.00000  0.00000  0.00000 
-1.747171e+01 5.134833e+01 2  0.00000  0.00000  0.00000 
-1.612338e+01 5.134833e+01 2  0.00000  0.00000  0.00000 
-1.477505e+01 5.134833e+01 2  0.00000  0.00000  0.00000 
-1.342672e+01 5.134833e+01 2  0.00000  0.00000  0.00000 
-1.207840e+01 5.134833e+01 2  0.00000  0.00000  0.00000 
-1.073007e+01 5.134833e+01 2  0.00000  0.00000  0.00000 
-9.381736e+00 5.134833e+01 2  0.00000  0.00000  0.00000 
-8.033406e+00 5.134833e+01 2  0.00000  0.00000  0.00000 
-6.685076e+00 5.134833e+01 2  0.00000  0.00000  0.00000 
-5.336747e+00 5.134833e+01 2  0.00000  0.00000  0.00000 
-3.988417e+00 5.134833e+01 2  0.00000  0.00000  0.00000 
-2.640087e+00 5.134833e+01 2  0.00000  0.00000  0.00000 
-1.291758e+00 5.134833e+01 2  0.00000  0.00000  0.00000 
5.657220e-02 5.134833e+01 2  0.00000  0.00000  0.00000 
1.404902e+00 5.134833e+01 2  0.00000  0.00000  0.00000 
2.753232e+00 5.134833e+01 2  0.00000  0.00000  0.00000 
4.101561e+00 5.134833e+01 2  0.00000  0.00000  0.00000 
5.449891e+00 5.134833e+01 2  0.00000  0.00000  0.00000 
6.798221e+00 5.134833e+01 2  0.00000  0.00000  0.00000 
8.146550e+00 5.134833e+01 2  0.00000  0.00000  0.00000 
9.494880e+00 5.134833e+01 2  0.00000  0.00000  0.00000 
1.084321e+01 5.134833e+01 2  0.00000  0.00000  0.00000 
1.219154e+01 5.134833e+01 2  0.00000  0.00000  0.00000 
1.353987e+01 5.134833e+01 2  0.00000  0.00000  0.00000 
1.488820e+01 5.134833e+01 2  0.00000  0.00000  0.00000 
1.623653e+01 5.134833e+01 2  0.00000  0.00000  0.00000 
1.758486e+01 5.134833e+01 2  0.00000  0.00000  0.00000 
1.893319e+01 5.134833e+01 2  0.00000  0.00000  0.00000 
2.028152e+01 5.134833e+01 2  0.00000  0.00000  0.00000 
2.162985e+01 5.134833e+01 2  0.00000  0.00000  0.00000 
2.297818e+01 5.134833e+01 2  0.00000  0.00000  0.00000 
2.432651e+01 5.134833e+01 2  0.00000  0.00000  0.00000 
2.567484e+01 5.134833e+01 2  0.00000  0.00000  0.00000 
2.702317e+01 5.134833e+01 2  0.00000  0.00000  0.00000 
2.837150e+01 5.134833e+01 2  0.00000  0.00000  0.00000 
2.971983e+01 5.134833e+01 2  0.00000  0.00000  0.00000 
3.106816e+01 5.134833e+01 2  0.00000  0.00000  0.00000 
3.241648e+01 5.134833e+01 2  0.00000  0.00000  0.00000 
3.376481e+01 5.134833e+01 2  0.00000  0.00000  0.00000 
3.511314e+01 5.134833e+01 2  0.00000  0.00000  0.00000 
-35 5.269666e+01 2  0.00000  0.00000  0.00000 
-3.365167e+01 5.269666e+01 2  0.00000  0.00000  0.00000 
-3.230334e+01 5.269666e+01 2  0.00000  0.00000  0.00000 
-3.095501e+01 5.269666e+01 2  0.00000  0.00000  0.00000 
-2.960668e+01 5.269666e+01 2  0.00000  0.00000  0.00000 
-2.825835e+01 5.269666e+01 2  0.00000  0.00000  0.00000 
-2.691002e+01 5.269666e+01 2  0.00000  0.00000  0.00000 
-2.556169e+01 5.269666e+01 2  0.00000  0.00000  0.00000 
-2.421336e+01 5.269666e+01 2  0.00000  0.00000  0.00000 
-2.286503e+01 5.269666e+01 2  0.00000  0.00000  0.00000 
-2.151670e+01 5.269666e+01 2  0.00000  0.00000  0.00000 
-2.016837e+01 5.269666e+01 2  0.00000  0.00000  0.00000 
-1.882004e+01 5.269666e+01 2  0.00000  0.00000  0.00000 
-1.747171e+01 5.269666e+01 2  0.00000  0.00000  0.00000 
-1.612338e+01 5.269666e+01 2  0.00000  0.00000  0.00000 
-1.477505e+01 5.269666e+01 2  0.00000  0.00000  0.00000 
-1.342672e+01 5.269666e+01 2  0.00000  0.00000  0.00000 
-1.207840e+01 5.269666e+01 2  0.00000  0.00000  0.00000 
-1.073007e+01 5.269666e+01 2  0.00000  0.00000  0.00000 
-9.381736e+00 5.269666e+01 2  0.00000  0.00000  0.00000 
-8.033406e+00 5.269666e+01 2  0.00000  0.00000  0.00000 
-6.685076e+00 5.269666e+01 2  0.00000  0.00000  0.00000 
-5.336747e+00 5.269666e+01 2  0.00000  0.00000  0.00000 
-3.988417e+00 5.269666e+01 2  0.00000  0.00000  0.00000 
-2.640087e+00 5.269666e+01 2  0.00000  0.00000  0.00000 
-1.291758e+00 5.269666e+01 2  0.00000  0.00000  0.00000 
5.657220e-02 5.269666e+01 2  0.00000  0.00000  0.00000 
1.404902e+00 5.269666e+01 2  0.00000  0.00000  0.00000 
2.753232e+00 5.269666e+01 2  0.00000  0.00000  0.00000 
4.101561e+00 5.269666e+01 2  0.00000  0.00000  0.00000 
5.449891e+00 5.269666e+01 2  0.00000  0.00000  0.00000 
6.798221e+00 5.269666e+01 2  0.00000  0.00000  0.00000 
8.146550e+00 5.269666e+01 2  0.00000  0.00000  0.00000 
9.494880e+00 5.269666e+01 2  0.00000  0.00000  0.00000 
1.084321e+01 5.269666e+01 2  0.00000  0.00000  0.00000 
1.219154e+01 5.269666e+01 2  0.00000  0.00000  0.00000 
1.353987e+01 5.269666e+01 2  0.00000  0.00000  0.00000 
1.488820e+01 5.269666e+01 2  0.00000  0.00000  0.00000 
1.623653e+01 5.269666e+01 2  0.00000  0.00000  0.00000 
1.758486e+01 5.269666e+01 2  0.00000  0.00000  0.00000 
1.893319e+01 5.269666e+01 2  0.00000  0.00000  0.00000 
2.028152e+01 5.269666e+01 2  0.00000  0.00000  0.00000 
2.162985e+01 5.269666e+01 2  0.00000  0.00000  0.00000 
2.297818e+01 5.269666e+01 2  0.00000  0.00000  0.00000 
2.432651e+01 5.269666e+01 2  0.00000  0.00000  0.00000 
2.567484e+01 5.269666e+01 2  0.00000  0.00000  0.00000 
2.702317e+01 5.269666e+01 2  0.00000  0.00000  0.00000 
2.837150e+01 5.269666e+01 2  0.00000  0.00000  0.00000 
2.971983e+01 5.269666e+01 2  0.00000  0.00000  0.00000 
3.106816e+01 5.269666e+01 2  0.00000  0.00000  0.00000 
3.241648e+01 5.269666e+01 2  0.00000  0.00000  0.00000 
3.376481e+01 5.269666e+01 2  0.00000  0.00000  0.00000 
3.511314e+01 5.269666e+01 2  0.00000  0.00000  0.00000 
-35 5.404499e+01 2  0.00000  0.00000  0.00000 
-3.365167e+01 5.404499e+01 2  0.00000  0.00000  0.00000 
-3.230334e+01 5.404499e+01 2  0.00000  0.00000  0.00000 
-3.095501e+01 5.404499e+01 2  0.00000  0.00000  0.00000 
-2.960668e+01 5.404499e+01 2  0.00000  0.00000  0.00000 
-2.825835e+01 5.404499e+01 2  0.00000  0.00000  0.00000 
-2.691002e+01 5.404499e+01 2  0.00000  0.00000  0.00000 
-2.556169e+01 5.404499e+01 2  0.00000  0.00000  0.00000 
-2.421336e+01 5.404499e+01 2  0.00000  0.00000  0.00000 
-2.286503e+01 5.404499e+01 2  0.00000  0.00000  0.00000 
-2.151670e+01 5.404499e+01 2  0.00000  0.00000  0.00000 
-2.016837e+01 5.404499e+01 2  0.00000  0.00000  0.00000 
-1.882004e+01 5.404499e+01 2  0.00000  0.00000  0.00000 
-1.747171e+01 5.404499e+01 2  0.00000  0.00000  0.00000 
-1.612338e+01 5.404499e+01 2  0.00000  0.00000  0.00000 
-1.477505e+01 5.404499e+01 2  0.00000  0.00000  0.00000 
-1.342672e+01 5.404499e+01 2  0.00000  0.00000  0.00000 
-1.207840e+01 5.404499e+01 2  0.00000  0.00000  0.00000 
-1.073007e+01 5.404499e+01 2  0.00000  0.00000  0.00000 
-9.381736e+00 5.404499e+01 2  0.00000  0.00000  0.00000 
-8.033406e+00 5.404499e+01 2  0.00000  0.00000  0.00000 
-6.685076e+00 5.404499e+01 2  0.00000  0.00000  0.00000 
-5.336747e+00 5.404499e+01 2  0.00000  0.00000  0.00000 
-3.988417e+00 5.404499e+01 2  0.00000  0.00000  0.00000 
-2.640087e+00 5.404499e+01 2  0.00000  0.00000  0.00000 
-1.291758e+00 5.404499e+01 2  0.00000  0.00000  0.00000 
5.657220e-02 5.404499e+01 2  0.00000  0.00000  0.00000 
1.404902e+00 5.404499e+01 2  0.00000  0.00000  0.00000 
2.753232e+00 5.404499e+01 2  0.00000  0.00000  0.00000 
4.101561e+00 5.404499e+01 2  0.00000  0.00000  0.00000 
5.449891e+00 5.404499e+01 2  0.00000  0.00000  0.00000 
6.798221e+00 5.404499e+01 2  0.00000  0.00000  0.00000 
8.146550e+00 5.404499e+01 2  0.00000  0.00000  0.00000 
9.494880e+00 5.404499e+01 2  0.00000  0.00000  0.00000 
1.084321e+01 5.404499e+01 2  0.00000  0.00000  0.00000 
1.219154e+01 5.404499e+01 2  0.00000  0.00000  0.00000 
1.353987e+01 5.404499e+01 2  0.00000  0.00000  0.00000 
1.488820e+01 5.404499e+01 2  0.00000  0.00000  0.00000 
1.623653e+01 5.404499e+01 2  0.00000  0.00000  0.00000 
1.758486e+01 5.404499e+01 2  0.00000  0.00000  0.00000 
1.893319e+01 5.404499e+01 2  0.00000  0.00000  0.00000 
2.028152e+01 5.404499e+01 2  0.00000  0.00000  0.00000 
2.162985e+01 5.404499e+01 2  0.00000  0.00000  0.00000 
2.297818e+01 5.404499e+01 2  0.00000  0.00000  0.00000 
2.432651e+01 5.404499e+01 2  0.00000  0.00000  0.00000 
2.567484e+01 5.404499e+01 2  0.00000  0.00000  0.00000 
2.702317e+01 5.404499e+01 2  0.00000  0.00000  0.00000 
2.837150e+01 5.404499e+01 2  0.00000  0.00000  0.00000 
2.971983e+01 5.404499e+01 2  0.00000  0.00000  0.00000 
3.106816e+01 5.404499e+01 2  0.00000  0.00000  0.00000 
3.241648e+01 5.404499e+01 2  0.00000  0.00000  0.00000 
3.376481e+01 5.404499e+01 2  0.00000  0.00000  0.00000 
3.511314e+01 5.404499e+01 2  0.00000  0.00000  0.00000 
-35 5.539332e+01 2  0.00000  0.00000  0.00000 
-3.365167e+01 5.539332e+01 2  0.00000  0.00000  0.00000 
-3.230334e+01 5.539332e+01 2  0.00000  0.00000  0.00000 
-3.095501e+01 5.539332e+01 2  0.00000  0.00000  0.00000 
-2.960668e+01 5.539332e+01 2  0.00000  0.00000  0.00000 
-2.825835e+01 5.539332e+01 2  0.00000  0.00000  0.00000 
-2.691002e+01 5.539332e+01 2  0.00000  0.00000  0.00000 
-2.556169e+01 5.539332e+01 2  0.00000  0.00000  0.00000 
-2.421336e+01 5.539332e+01 2  0.00000  0.00000  0.00000 
-2.286503e+01 5.539332e+01 2  0.00000  0.00000  0.00000 
-2.151670e+01 5.539332e+01 2  0.00000  0.00000  0.00000 
-2.016837e+01 5.539332e+01 2  0.00000  0.00000  0.00000 
-1.882004e+01 5.539332e+01 2  0.00000  0.00000  0.00000 
-1.747171e+01 5.539332e+01 2  0.00000  0.00000  0.00000 
-1.612338e+01 5.539332e+01 2  0.00000  0.00000  0.00000 
-1.477505e+01 5.539332e+01 2  0.00000  0.00000  0.00000 
-1.342672e+01 5.539332e+01 2  0.00000  0.00000  0.00000 
-1.207840e+01 5.539332e+01 2  0.00000  0.00000  0.00000 
-1.073007e+01 5.539332e+01 2  0.00000  0.00000  0.00000 
-9.381736e+00 5.539332e+01 2  0.00000  0.00000  0.00000 
-8.033406e+00 5.539332e+01 2  0.00000  0.00000  0.00000 
-6.685076e+00 5.539332e+01 2  0.00000  0.00000  0.00000 
-5.336747e+00 5.539332e+01 2  0.00000  0.00000  0.00000 
-3.988417e+00 5.539332e+01 2  0.00000  0.00000  0.00000 
-2.640087e+00 5.539332e+01 2  0.00000  0.00000  0.00000 
-1.291758e+00 5.539332e+01 2  0.00000  0.00000  0.00000 
5.657220e-02 5.539332e+01 2  0.00000  0.00000  0.00000 
1.404902e+00 5.539332e+01 2  0.00000  0.00000  0.00000 
2.753232e+00 5.539332e+01 2  0.00000  0.00000  0.00000 
4.101561e+00 5.539332e+01 2  0.00000  0.00000  0.00000 
5.449891e+00 5.539332e+01 2  0.00000  0.00000  0.00000 
6.798221e+00 5.539332e+01 2  0.00000  0.00000  0.00000 
8.146550e+00 5.539332e+01 2  0.00000  0.00000  0.00000 
9.494880e+00 5.539332e+01 2  0.00000  0.00000  0.00000 
1.084321e+01 5.539332e+01 2  0.00000  0.00000  0.00000 
1.219154e+01 5.539332e+01 2  0.00000  0.00000  0.00000 
1.353987e+01 5.539332e+01 2  0.00000  0.00000  0.00000 
1.488820e+01 5.539332e+01 2  0.00000  0.00000  0.00000 
1.623653e+01 5.539332e+01 2  0.00000  0.00000  0.00000 
1.758486e+01 5.539332e+01 2  0.00000  0.00000  0.00000 
1.893319e+01 5.539332e+01 2  0.00000  0.00000  0.00000 
2.028152e+01 5.539332e+01 2  0.00000  0.00000  0.00000 
2.162985e+01 5.539332e+01 2  0.00000  0.00000  0.00000 
2.297818e+01 5.539332e+01 2  0.00000  0.00000  0.00000 
2.432651e+01 5.539332e+01 2  0.00000  0.00000  0.00000 
2.567484e+01 5.539332e+01 2  0.00000  0.00000  0.00000 
2.702317e+01 5.539332e+01 2  0.00000  0.00000  0.00000 
2.837150e+01 5.539332e+01 2  0.00000  0.00000  0.00000 
2.971983e+01 5.539332e+01 2  0.00000  0.00000  0.00000 
3.106816e+01 5.539332e+01 2  0.00000  0.00000  0.00000 
3.241648e+01 5.539332e+01 2  0.00000  0.00000  0.00000 
3.376481e+01 5.539332e+01 2  0.00000  0.00000  0.00000 
3.511314e+01 5.539332e+01 2  0.00000  0.00000  0.00000 
-35 5.674165e+01 2  0.00000  0.00000  0.00000 
-3.365167e+01 5.674165e+01 2  0.00000  0.00000  0.00000 
-3.230334e+01 5.674165e+01 2  0.00000  0.00000  0.00000 
-3.095501e+01 5.674165e+01 2  0.00000  0.00000  0.00000 
-2.960668e+01 5.674165e+01 2  0.00000  0.00000  0.00000 
-2.825835e+01 5.674165e+01 2  0.00000  0.00000  0.00000 
-2.691002e+01 5.674165e+01 2  0.00000  0.00000  0.00000 
-2.556169e+01 5.674165e+01 2  0.00000  0.00000  0.00000 
-2.421336e+01 5.674165e+01 2  0.00000  0.00000  0.00000 
-2.286503e+01 5.674165e+01 2  0.00000  0.00000  0.00000 
-2.151670e+01 5.674165e+01 2  0.00000  0.00000  0.00000 
-2.016837e+01 5.674165e+01 2  0.00000  0.00000  0.00000 
-1.882004e+01 5.674165e+01 2  0.00000  0.00000  0.00000 
-1.747171e+01 5.674165e+01 2  0.00000  0.00000  0.00000 
-1.612338e+01 5.674165e+01 2  0.00000  0.00000  0.00000 
-1.477505e+01 5.674165e+01 2  0.00000  0.00000  0.00000 
-1.342672e+01 5.674165e+01 2  0.00000  0.00000  0.00000 
-1.207840e+01 5.674165e+01 2  0.00000  0.00000  0.00000 
-1.073007e+01 5.674165e+01 2  0.00000  0.00000  0.00000 
-9.381736e+00 5.674165e+01 2  0.00000  0.00000  0.00000 
-8.033406e+00 5.674165e+01 2  0.00000  0.00000  0.00000 
-6.685076e+00 5.674165e+01 2  0.00000  0.00000  0.00000 
-5.336747e+00 5.674165e+01 2  0.00000  0.00000  0.00000 
-3.988417e+00 5.674165e+01 2  0.00000  0.00000  0.00000 
-2.640087e+00 5.674165e+01 2  0.00000  0.00000  0.00000 
-1.291758e+00 5.674165e+01 2  0.00000  0.00000  0.00000 
5.657220e-02 5.674165e+01 2  0.00000  0.00000  0.00000 
1.404902e+00 5.674165e+01 2  0.00000  0.00000  0.00000 
2.753232e+00 5.674165e+01 2  0.00000  0.00000  0.00000 
4.101561e+00 5.674165e+01 2  0.00000  0.00000  0.00000 
5.449891e+00 5.674165e+01 2  0.00000  0.00000  0.00000 
6.798221e+00 5.674165e+01 2  0.00000  0.00000  0.00000 
8.146550e+00 5.674165e+01 2  0.00000  0.00000  0.00000 
9.494880e+00 5.674165e+01 2  0.00000  0.00000  0.00000 
1.084321e+01 5.674165e+01 2  0.00000  0.00000  0.00000 
1.219154e+01 5.674165e+01 2  0.00000  0.00000  0.00000 
1.353987e+01 5.674165e+01 2  0.00000  0.00000  0.00000 
1.488820e+01 5.674165e+01 2  0.00000  0.00000  0.00000 
1.623653e+01 5.674165e+01 2  0.00000  0.00000  0.00000 
1.758486e+01 5.674165e+01 2  0.00000  0.00000  0.00000 
1.893319e+01 5.674165e+01 2  0.00000  0.00000  0.00000 
2.028152e+01 5.674165e+01 2  0.00000  0.00000  0.00000 
2.162985e+01 5.674165e+01 2  0.00000  0.00000  0.00000 
2.297818e+01 5.674165e+01 2  0.00000  0.00000  0.00000 
2.432651e+01 5.674165e+01 2  0.00000  0.00000  0.00000 
2.567484e+01 5.674165e+01 2  0.00000  0.00000  0.00000 
2.702317e+01 5.674165e+01 2  0.00000  0.00000  0.00000 
2.837150e+01 5.674165e+01 2  0.00000  0.00000  0.00000 
2.971983e+01 5.674165e+01 2  0.00000  0.00000  0.00000 
3.106816e+01 5.674165e+01 2  0.00000  0.00000  0.00000 
3.241648e+01 5.674165e+01 2  0.00000  0.00000  0.00000 
3.376481e+01 5.674165e+01 2  0.00000  0.00000  0.00000 
3.511314e+01 5.674165e+01 2  0.00000  0.00000  0.00000 
-35 5.808998e+01 2  0.00000  0.00000  0.00000 
-3.365167e+01 5.808998e+01 2  0.00000  0.00000  0.00000 
-3.230334e+01 5.808998e+01 2  0.00000  0.00000  0.00000 
-3.095501e+01 5.808998e+01 2  0.00000  0.00000  0.00000 
-2.960668e+01 5.808998e+01 2  0.00000  0.00000  0.00000 
-2.825835e+01 5.808998e+01 2  0.13700  0.11728  0.28238 
-2.691002e+01 5.808998e+01 2  0.12624  0.10383  0.24449 
-2.556169e+01 5.808998e+01 2  0.11828  0.08957  0.20611 
-2.421336e+01 5.808998e+01 2  0.11838  0.08548  0.17924 
-2.286503e+01 5.808998e+01 2  0.12249  0.08583  0.16726 
-2.151670e+01 5.808998e+01 2  0.13433  0.09237  0.16989 
-2.016837e+01 5.808998e+01 2  0.14421  0.10141  0.17434 
-1.882004e+01 5.808998e+01 2  0.15368  0.10745  0.18124 
-1.747171e+01 5.808998e+01 2  0.16636  0.11255  0.18057 
-1.612338e+01 5.808998e+01 2  0.18191  0.11983  0.17893 
-1.477505e+01 5.808998e+01 2  0.19710  0.12934  0.17930 
-1.342672e+01 5.808998e+01 2  0.21029  0.13934  0.17917 
-1.207840e+01 5.808998e+01 2  0.21521  0.14295  0.17416 
-1.073007e+01 5.808998e+01 2  0.21670  0.14341  0.16794 
-9.381736e+00 5.808998e+01 2  0.21671  0.14426  0.17092 
-8.033406e+00 5.808998e+01 2  0.00000  0.00000  0.00000 
-6.685076e+00 5.808998e+01 2  0.00000  0.00000  0.00000 
-5.336747e+00 5.808998e+01 2  0.00000  0.00000  0.00000 
-3.988417e+00 5.808998e+01 2  0.00000  0.00000  0.00000 
-2.640087e+00 5.808998e+01 2  0.00000  0.00000  0.00000 
-1.291758e+00 5.808998e+01 2  0.00000  0.00000  0.00000 
5.657220e-02 5.808998e+01 2  0.00000  0.00000  0.00000 
1.404902e+00 5.808998e+01 2  0.00000  0.00000  0.00000 
2.753232e+00 5.808998e+01 2  0.00000  0.00000  0.00000 
4.101561e+00 5.808998e+01 2  0.00000  0.00000  0.00000 
5.449891e+00 5.808998e+01 2  0.00000  0.00000  0.00000 
6.798221e+00 5.808998e+01 2  0.00000  0.00000  0.00000 
8.146550e+00 5.808998e+01 2  0.00000  0.00000  0.00000 
9.494880e+00 5.808998e+01 2  0.00000  0.00000  0.00000 
1.084321e+01 5.808998e+01 2  0.00000  0.00000  0.00000 
1.219154e+01 5.808998e+01 2  0.00000  0.00000  0.00000 
1.353987e+01 5.808998e+01 2  0.00000  0.00000  0.00000 
1.488820e+01 5.808998e+01 2  0.00000  0.00000  0.00000 
1.623653e+01 5.808998e+01 2  0.00000  0.00000  0.00000 
1.758486e+01 5.808998e+01 2  0.00000  0.00000  0.00000 
1.893319e+01 5.808998e+01 2  0.00000  0.00000  0.00000 
2.028152e+01 5.808998e+01 2  0.00000  0.00000  0.00000 
2.162985e+01 5.808998e+01 2  0.00000  0.00000  0.00000 
2.297818e+01 5.808998e+01 2  0.00000  0.00000  0.00000 
2.432651e+01 5.808998e+01 2  0.00000  0.00000  0.00000 
2.567484e+01 5.808998e+01 2  0.00000  0.00000  0.00000 
2.702317e+01 5.808998e+01 2  0.00000  0.00000  0.00000 
2.837150e+01 5.808998e+01 2  0.00000  0.00000  0.00000 
2.971983e+01 5.808998e+01 2  0.00000  0.00000  0.00000 
3.106816e+01 5.808998e+01 2  0.00000  0.00000  0.00000 
3.241648e+01 5.808998e+01 2  0.00000  0.00000  0.00000 
3.376481e+01 5.808998e+01 2  0.00000  0.00000  0.00000 
3.511314e+01 5.808998e+01 2  0.00000  0.00000  0.00000 
-35 5.943831e+01 2  0.00000  0.00000  0.00000 
-3.365167e+01 5.943831e+01 2  0.00000  0.00000  0.00000 
-3.230334e+01 5.943831e+01 2  0.17030  0.14083  0.34583 
-3.095501e+01 5.943831e+01 2  0.14186  0.12109  0.29313 
-2.960668e+01 5.943831e+01 2  0.12301  0.10396  0.24511 
-2.825835e+01 5.943831e+01 2  0.11152  0.09132  0.20882 
-2.691002e+01 5.943831e+01 2  0.10561  0.08391  0.19028 
-2.556169e+01 5.943831e+01 2  0.10099  0.07635  0.16799 
-2.421336e+01 5.943831e+01 2  0.10152  0.07324  0.14955 
-2.286503e+01 5.943831e+01 2  0.10790  0.07512  0.14573 
-2.151670e+01 5.943831e+01 2  0.12030  0.08086  0.15383 
-2.016837e+01 5.943831e+01 2  0.13459  0.08894  0.15821 
-1.882004e+01 5.943831e+01 2  0.14874  0.09630  0.16219 
-1.747171e+01 5.943831e+01 2  0.16481  0.10436  0.16614 
-1.612338e+01 5.943831e+01 2  0.18071  0.11436  0.16877 
-1.477505e+01 5.943831e+01 2  0.19530  0.12568  0.16902 
-1.342672e+01 5.943831e+01 2  0.20584  0.13378  0.16838 
-1.207840e+01 5.943831e+01 2  0.21100  0.13567  0.16375 
-1.073007e+01 5.943831e+01 2  0.21171  0.13743  0.15615 
-9.381736e+00 5.943831e+01 2  0.21343  0.13823  0.15866 
-8.033406e+00 5.943831e+01 2  0.21365  0.14138  0.16767 
-6.685076e+00 5.943831e+01 2  0.00000  0.00000  0.00000 
-5.336747e+00 5.943831e+01 2  0.00000  0.00000  0.00000 
-3.988417e+00 5.943831e+01 2  0.00000  0.00000  0.00000 
-2.640087e+00 5.943831e+01 2  0.00000  0.00000  0.00000 
-1.291758e+00 5.943831e+01 2  0.00000  0.00000  0.00000 
5.657220e-02 5.943831e+01 2  0.00000  0.00000  0.00000 
1.404902e+00 5.943831e+01 2  0.00000  0.00000  0.00000 
2.753232e+00 5.943831e+01 2  0.00000  0.00000  0.00000 
4.101561e+00 5.943831e+01 2  0.00000  0.00000  0.00000 
5.449891e+00 5.943831e+01 2  0.00000  0.00000  0.00000 
6.798221e+00 5.943831e+01 2  0.00000  0.00000  0.00000 
8.146550e+00 5.943831e+01 2  0.00000  0.00000  0.00000 
9.494880e+00 5.943831e+01 2  0.00000  0.00000  0.00000 
1.084321e+01 5.943831e+01 2  0.00000  0.00000  0.00000 
1.219154e+01 5.943831e+01 2  0.00000  0.00000  0.00000 
1.353987e+01 5.943831e+01 2  0.00000  0.00000  0.00000 
1.488820e+01 5.943831e+01 2  0.00000  0.00000  0.00000 
1.623653e+01 5.943831e+01 2  0.00000  0.00000  0.00000 
1.758486e+01 5.943831e+01 2  0.00000  0.00000  0.00000 
1.893319e+01 5.943831e+01 2  0.00000  0.00000  0.00000 
2.028152e+01 5.943831e+01 2  0.00000  0.00000  0.00000 
2.162985e+01 5.943831e+01 2  0.00000  0.00000  0.00000 
2.297818e+01 5.943831e+01 2  0.00000  0.00000  0.00000 
2.432651e+01 5.943831e+01 2  0.00000  0.00000  0.00000 
2.567484e+01 5.943831e+01 2  0.00000  0.00000  0.00000 
2.702317e+01 5.943831e+01 2  0.00000  0.00000  0.00000 
2.837150e+01 5.943831e+01 2  0.00000  0.00000  0.00000 
2.971983e+01 5.943831e+01 2  0.00000  0.00000  0.00000 
3.106816e+01 5.943831e+01 2  0.00000  0.00000  0.00000 
3.241648e+01 5.943831e+01 2  0.00000  0.00000  0.00000 
3.376481e+01 5.943831e+01 2  0.00000  0.00000  0.00000 
3.511314e+01 5.943831e+01 2  0.00000  0.00000  0.00000 
-35 6.078664e+01 2  0.00000  0.00000  0.00000 
-3.365167e+01 6.078664e+01 2  0.00000  0.00000  0.00000 
-3.230334e+01 6.078664e+01 2  0.13354  0.10933  0.26548 
-3.095501e+01 6.078664e+01 2  0.10698  0.08977  0.21779 
-2.960668e+01 6.078664e+01 2  0.09452  0.07719  0.17662 
-2.825835e+01 6.078664e+01 2  0.08914  0.07001  0.14965 
-2.691002e+01 6.078664e+01 2  0.08404  0.06524  0.13907 
-2.556169e+01 6.078664e+01 2  0.08156  0.06273  0.12824 
-2.421336e+01 6.078664e+01 2  0.08578  0.06247  0.12137 
-2.286503e+01 6.078664e+01 2  0.09612  0.06459  0.12218 
-2.151670e+01 6.078664e+01 2  0.11007  0.07017  0.13125 
-2.016837e+01 6.078664e+01 2  0.12833  0.07823  0.13912 
-1.882004e+01 6.078664e+01 2  0.14533  0.08622  0.14640 
-1.747171e+01 6.078664e+01 2  0.16210  0.09637  0.15404 
-1.612338e+01 6.078664e+01 2  0.17755  0.10917  0.15898 
-1.477505e+01 6.078664e+01 2  0.19449  0.12136  0.16238 
-1.342672e+01 6.078664e+01 2  0.20489  0.12805  0.16017 
-1.207840e+01 6.078664e+01 2  0.20914  0.12992  0.15638 
-1.073007e+01 6.078664e+01 2  0.20963  0.13212  0.15015 
-9.381736e+00 6.078664e+01 2  0.20983  0.13167  0.15113 
-8.033406e+00 6.078664e+01 2  0.21016  0.13358  0.15693 
-6.685076e+00 6.078664e+01 2  0.00000  0.00000  0.00000 
-5.336747e+00 6.078664e+01 2  0.00000  0.00000  0.00000 
-3.988417e+00 6.078664e+01 2  0.00000  0.00000  0.00000 
-2.640087e+00 6.078664e+01 2  0.00000  0.00000  0.00000 
-1.291758e+00 6.078664e+01 2  0.00000  0.00000  0.00000 
5.657220e-02 6.078664e+01 2  0.00000  0.00000  0.00000 
1.404902e+00 6.078664e+01 2  0.00000  0.00000  0.00000 
2.753232e+00 6.078664e+01 2  0.00000  0.00000  0.00000 
4.101561e+00 6.078664e+01 2  0.00000  0.00000  0.00000 
5.449891e+00 6.078664e+01 2  0.00000  0.00000  0.00000 
6.798221e+00 6.078664e+01 2  0.00000  0.00000  0.00000 
8.146550e+00 6.078664e+01 2  0.00000  0.00000  0.00000 
9.494880e+00 6.078664e+01 2  0.00000  0.00000  0.00000 
1.084321e+01 6.078664e+01 2  0.00000  0.00000  0.00000 
1.219154e+01 6.078664e+01 2  0.00000  0.00000  0.00000 
1.353987e+01 6.078664e+01 2  0.00000  0.00000  0.00000 
1.488820e+01 6.078664e+01 2  0.00000  0.00000  0.00000 
1.623653e+01 6.078664e+01 2  0.00000  0.00000  0.00000 
1.758486e+01 6.078664e+01 2  0.00000  0.00000  0.00000 
1.893319e+01 6.078664e+01 2  0.11508  0.10671  0.14739 
2.028152e+01 6.078664e+01 2  0.10206  0.10325  0.13483 
2.162985e+01 6.078664e+01 2  0.09407  0.10279  0.12656 
2.297818e+01 6.078664e+01 2  0.09157  0.10296  0.12635 
2.432651e+01 6.078664e+01 2  0.09356  0.10200  0.13635 
2.567484e+01 6.078664e+01 2  0.10124  0.10176  0.16216 
2.702317e+01 6.078664e+01 2  0.11339  0.10642  0.19102 
2.837150e+01 6.078664e+01 2  0.00000  0.00000  0.00000 
2.971983e+01 6.078664e+01 2  0.00000  0.00000  0.00000 
3.106816e+01 6.078664e+01 2  0.00000  0.00000  0.00000 
3.241648e+01 6.078664e+01 2  0.00000  0.00000  0.00000 
3.376481e+01 6.078664e+01 2  0.00000  0.00000  0.00000 
3.511314e+01 6.078664e+01 2  0.00000  0.00000  0.00000 
-35 6.213497e+01 2  0.00000  0.00000  0.00000 
-3.365167e+01 6.213497e+01 2  0.12083  0.10030  0.24587 
-3.230334e+01 6.213497e+01 2  0.09813  0.08014  0.19011 
-3.095501e+01 6.213497e+01 2  0.08111  0.06799  0.15014 
-2.960668e+01 6.213497e+01 2  0.07373  0.06003  0.12537 
-2.825835e+01 6.213497e+01 2  0.07038  0.05522  0.10876 
-2.691002e+01 6.213497e+01 2  0.06717  0.05178  0.10128 
-2.556169e+01 6.213497e+01 2  0.06766  0.05084  0.09752 
-2.421336e+01 6.213497e+01 2  0.07492  0.05232  0.09804 
-2.286503e+01 6.213497e+01 2  0.08704  0.05568  0.10100 
-2.151670e+01 6.213497e+01 2  0.10213  0.06159  0.10865 
-2.016837e+01 6.213497e+01 2  0.12069  0.07082  0.12128 
-1.882004e+01 6.213497e+01 2  0.13982  0.08144  0.13430 
-1.747171e+01 6.213497e+01 2  0.15952  0.09181  0.14404 
-1.612338e+01 6.213497e+01 2  0.17687  0.10209  0.15205 
-1.477505e+01 6.213497e+01 2  0.19319  0.11410  0.15620 
-1.342672e+01 6.213497e+01 2  0.20337  0.12289  0.15367 
-1.207840e+01 6.213497e+01 2  0.20834  0.12759  0.14933 
-1.073007e+01 6.213497e+01 2  0.20972  0.12946  0.14407 
-9.381736e+00 6.213497e+01 2  0.20900  0.12813  0.14339 
-8.033406e+00 6.213497e+01 2  0.20729  0.12860  0.14914 
-6.685076e+00 6.213497e+01 2  0.20212  0.12918  0.15606 
-5.336747e+00 6.213497e+01 2  0.00000  0.00000  0.00000 
-3.988417e+00 6.213497e+01 2  0.00000  0.00000  0.00000 
-2.640087e+00 6.213497e+01 2  0.00000  0.00000  0.00000 
-1.291758e+00 6.213497e+01 2  0.00000  0.00000  0.00000 
5.657220e-02 6.213497e+01 2  0.00000  0.00000  0.00000 
1.404902e+00 6.213497e+01 2  0.00000  0.00000  0.00000 
2.753232e+00 6.213497e+01 2  0.00000  0.00000  0.00000 
4.101561e+00 6.213497e+01 2  0.00000  0.00000  0.00000 
5.449891e+00 6.213497e+01 2  0.00000  0.00000  0.00000 
6.798221e+00 6.213497e+01 2  0.00000  0.00000  0.00000 
8.146550e+00 6.213497e+01 2  0.00000  0.00000  0.00000 
9.494880e+00 6.213497e+01 2  0.00000  0.00000  0.00000 
1.084321e+01 6.213497e+01 2  0.00000  0.00000  0.00000 
1.219154e+01 6.213497e+01 2  0.00000  0.00000  0.00000 
1.353987e+01 6.213497e+01 2  0.00000  0.00000  0.00000 
1.488820e+01 6.213497e+01 2  0.13781  0.10778  0.17021 
1.623653e+01 6.213497e+01 2  0.12378  0.10210  0.15305 
1.758486e+01 6.213497e+01 2  0.10964  0.09561  0.13347 
1.893319e+01 6.213497e+01 2  0.09663  0.09173  0.11905 
2.028152e+01 6.213497e+01 2  0.08620  0.08805  0.10922 
2.162985e+01 6.213497e+01 2  0.08046  0.08735  0.09990 
2.297818e+01 6.213497e+01 2  0.07740  0.08817  0.09773 
2.432651e+01 6.213497e+01 2  0.07894  0.08750  0.10520 
2.567484e+01 6.213497e+01 2  0.08610  0.08924  0.12630 
2.702317e+01 6.213497e+01 2  0.09577  0.09384  0.15579 
2.837150e+01 6.213497e+01 2  0.10916  0.10178  0.20105 
2.971983e+01 6.213497e+01 2  0.13336  0.11998  0.27995 
3.106816e+01 6.213497e+01 2  0.00000  0.00000  0.00000 
3.241648e+01 6.213497e+01 2  0.00000  0.00000  0.00000 
3.376481e+01 6.213497e+01 2  0.00000  0.00000  0.00000 
3.511314e+01 6.213497e+01 2  0.00000  0.00000  0.00000 
-35 6.348330e+01 2  0.00000  0.00000  0.00000 
-3.365167e+01 6.348330e+01 2  0.09172  0.07590  0.18436 
-3.230334e+01 6.348330e+01 2  0.07389  0.06185  0.14149 
-3.095501e+01 6.348330e+01 2  0.06435  0.05388  0.11147 
-2.960668e+01 6.348330e+01 2  0.05950  0.04725  0.09362 
-2.825835e+01 6.348330e+01 2  0.05727  0.04357  0.08235 
-2.691002e+01 6.348330e+01 2  0.05728  0.04226  0.07813 
-2.556169e+01 6.348330e+01 2  0.06051  0.04220  0.07855 
-2.421336e+01 6.348330e+01 2  0.06789  0.04467  0.08115 
-2.286503e+01 6.348330e+01 2  0.07855  0.04938  0.08574 