TITLE = "B00001_ReynoldsStress"
VARIABLES = "X", "Y", "Z", "ReXX", "ReXX", "ReYY", "ReXY"
ZONE T="Frame 1" I=65, J=53, K=6, F=POINT
-154.343 138.451 19.80346 15.43371 -10.53823
-153.3043 138.451 25.50857 12.71753 0.035393
-152.2656 138.451 28.29882 10.46134 0.803027
-151.2269 138.451 31.32341 13.18148 1.456656
-150.1882 138.451 28.86712 12.25247 1.417165
-149.1495 138.451 24.26319 9.883693 0.293176
-148.1107 138.451 17.39571 10.60575 1.957315
-147.072 138.451 18.85621 11.98256 1.356846
-146.0333 138.451 18.22697 10.95518 -0.400429
-144.9946 138.451 18.7512 11.40632 -0.031952
-143.9559 138.451 18.13167 11.65024 0.987012
-142.9172 138.451 18.64337 11.41181 2.64479
-141.8785 138.451 17.26943 10.47607 1.833636
-140.8398 138.451 21.43144 9.345415 1.587892
-139.8011 138.451 19.4494 9.752026 0.589859
-138.7624 138.451 18.64727 8.223447 1.231872
-137.7236 138.451 17.88862 8.655747 0.508334
-136.6849 138.451 17.24547 8.538709 -0.248338
-135.6462 138.451 17.50295 8.771521 -0.324274
-134.6075 138.451 17.20827 9.292776 0.330028
-133.5688 138.451 16.80486 8.199681 0.125605
-132.5301 138.451 15.339 9.411073 0.823914
-131.4914 138.451 13.01071 11.39573 1.188149
-130.4527 138.451 13.58995 9.582732 1.572336
-129.414 138.451 14.37454 9.241883 2.000675
-128.3753 138.451 15.88353 9.79355 2.045036
-127.3365 138.451 13.86526 10.00966 0.163456
-126.2978 138.451 13.79721 8.667024 -1.459712
-125.2591 138.451 14.61366 7.443079 -0.915307
-124.2204 138.451 16.03715 7.714948 -0.072779
-123.1817 138.451 14.78496 8.835816 0.102516
-122.143 138.451 16.22936 9.973674 -0.340663
-121.1043 138.451 16.7895 10.55955 0.17007
-120.0656 138.451 17.1411 10.14426 0.771954
-119.0269 138.451 18.34426 9.594663 0.782995
-117.9882 138.451 17.00305 9.650274 2.076074
-116.9494 138.451 12.66841 9.556646 1.290989
-115.9107 138.451 16.33281 9.260164 1.535554
-114.872 138.451 14.3902 9.202825 0.63782
-113.8333 138.451 18.05235 8.413615 2.193959
-112.7946 138.451 19.49783 9.164602 1.672395
-111.7559 138.451 13.57091 8.647313 1.13302
-110.7172 138.451 14.8794 7.479675 0.842231
-109.6785 138.451 18.61913 8.24669 -0.132558
-108.6398 138.451 13.81079 7.944648 0.972216
-107.6011 138.451 13.1923 7.867513 0.414326
-106.5623 138.451 11.62778 8.405678 1.747164
-105.5236 138.451 10.46333 9.137818 0.829181
-104.4849 138.451 9.909346 9.000719 0.857788
-103.4462 138.451 9.443143 9.544031 0.577073
-102.4075 138.451 10.29481 8.883499 0.825319
-101.3688 138.451 10.32323 9.584877 0.502065
-100.3301 138.451 16.0989 8.769187 0.021839
-99.29137 138.451 14.62951 8.029274 0.395113
-98.25266 138.451 13.58158 6.769612 1.453781
-97.21395 138.451 16.56184 6.26907 0.451249
-96.17524 138.451 12.45053 6.451429 0.39207
-95.13653 138.451 12.12437 6.695872 -0.37237
-94.09782 138.451 13.44065 6.601048 -0.41607
-93.05911 138.451 14.2693 6.479629 -0.586728
-92.0204 138.451 15.07175 6.253144 0.170386
-90.98169 138.451 12.75444 6.416721 1.086292
-89.94298 138.451 13.27141 7.022139 1.491429
-88.90427 138.451 14.42524 9.482455 1.700741
-87.86556 138.451 20.11495 8.394796 2.470059
-86.82685 138.451 18.81576 6.847647 2.129696
-85.78814 138.451 17.06361 6.057517 1.585637
-84.74943 138.451 16.92232 8.003407 1.15267
-83.71072 138.451 17.31877 8.187564 0.263674
-82.67201 138.451 21.31665 9.072593 -0.459072
-81.6333 138.451 26.17615 8.870262 0.724783
-80.59459 138.451 29.90292 11.1507 0.808585
-79.55588 138.451 13.70206 10.95222 0.459435
-78.51717 138.451 12.65917 11.19022 1.400986
-77.47846 138.451 13.19366 9.908647 2.707194
-76.43975 138.451 16.51279 9.03121 1.5506
-75.40104 138.451 15.18442 8.779918 1.878876
-74.36233 138.451 17.147 8.716278 0.848509
-73.32362 138.451 17.13427 8.451832 0.75578
-72.28491 138.451 16.42625 7.831787 0.07103
-71.2462 138.451 18.71318 7.824702 0.341369
-70.20749 138.451 13.98739 7.880505 0.2761
-69.16878 138.451 12.37146 7.129114 0.188903
-68.13007 138.451 10.07853 6.669033 -0.397942
-67.09136 138.451 10.15306 7.905658 -0.168241
-66.05265 138.451 10.89097 6.595934 -1.025187
-65.01394 138.451 13.56475 6.686767 -1.69846
-63.97523 138.451 10.60474 7.38536 -0.411846
-62.93652 138.451 10.75067 8.274417 0.211894
-61.89781 138.451 14.81475 7.104439 0.716755
-60.8591 138.451 17.27963 5.961447 0.844115
-59.82039 138.451 14.48356 5.729256 0.204452
-58.78168 138.451 12.29968 7.234885 -0.167269
-57.74297 138.451 10.85367 9.491132 0.324876
-56.70426 138.451 10.49141 10.48032 0.729402
-55.66555 138.451 11.77626 9.085771 -0.553872
-54.62684 138.451 10.29837 6.856385 0.115185
-53.58813 138.451 12.35685 6.778224 -0.756267
-52.54942 138.451 13.70038 7.549926 -0.75848
-51.51071 138.451 13.75705 7.431814 0.339428
-50.472 138.451 18.62684 6.039108 0.374986
-49.43329 138.451 16.04633 6.060394 -0.595305
-48.39458 138.451 9.751838 5.583463 -0.811848
-47.35587 138.451 8.26033 5.24382 -0.836458
-46.31716 138.451 10.01319 5.892207 -0.392478
-45.27845 138.451 11.35649 5.793552 -0.457531
-44.23974 138.451 13.87218 6.790083 -0.888238
-43.20103 138.451 16.96768 7.340266 0.688152
-42.16232 138.451 10.08677 7.619569 -0.0507
-41.12361 138.451 10.52284 7.003955 0.408954
-40.0849 138.451 8.39954 6.808662 0.772174
-39.04619 138.451 8.383155 7.929217 0.442334
-38.00748 138.451 8.539222 7.222538 0.273611
-36.96877 138.451 7.770554 6.921556 1.140936
-35.93006 138.451 8.563563 5.967882 0.616329
-34.89135 138.451 8.818868 5.757448 1.239861
-33.85264 138.451 8.456408 6.47874 1.288632
-32.81393 138.451 11.50405 6.014046 0.071762
-31.77522 138.451 8.274873 5.575893 0.205388
-30.73651 138.451 9.463231 4.590664 -0.525331
-29.6978 138.451 7.673575 4.704653 -0.371785
-28.65909 138.451 9.613304 5.185276 -0.172205
-27.62038 138.451 9.184687 5.603878 -0.239513
-26.58167 138.451 9.834909 5.244137 0.735305
-25.54296 138.451 9.661219 5.502381 0.648822
-24.50425 138.451 9.912948 5.358607 0.181989
-23.46554 138.451 8.357079 5.730444 -0.366562
-22.42683 138.451 9.775118 6.164529 -0.866303
-21.38812 138.451 10.15106 5.626004 -1.811677
-20.34941 138.451 7.35531 5.586004 -0.725672
-19.3107 138.451 8.855994 5.142246 -0.917101
-18.27199 138.451 10.83927 5.278099 -0.620046
-17.23328 138.451 11.86969 5.629989 0.891683
-16.19457 138.451 12.34967 5.126981 -0.389926
-15.15586 138.451 12.47075 5.903718 0.684673
-14.11715 138.451 8.471762 5.957395 -0.587863
-13.07844 138.451 8.723706 5.972786 -0.597418
-12.03973 138.451 11.8366 5.531406 -1.450166
-11.00102 138.451 10.96749 4.67472 -0.631297
-9.962313 138.451 10.67911 4.257672 -0.725756
-8.923603 138.451 8.484184 5.510585 -0.768352
-7.884893 138.451 9.195486 5.998055 -1.089686
-6.846183 138.451 11.10888 5.338267 -1.422205
-5.807473 138.451 8.33573 5.477336 -1.435781
-4.768763 138.451 9.783442 5.384124 -1.549432
-3.730053 138.451 9.24914 4.72872 -0.66244
-2.691343 138.451 11.93694 5.90266 0.186853
-1.652633 138.451 9.077906 6.826804 0.15004
-0.613923 138.451 8.230986 6.173822 0.963736
0.424787 138.451 8.703395 6.027589 1.071778
1.463497 138.451 10.00172 5.088073 0.312931
2.502207 138.451 10.76741 5.657787 0.823771
3.540917 138.451 8.858932 5.408487 0.235207
4.579627 138.451 7.715422 4.602548 -0.728125
5.618337 138.451 8.167584 4.471193 -0.691644
6.657047 138.451 8.213469 4.812572 -0.465697
7.695757 138.451 11.09888 4.05798 -0.17584
8.734467 138.451 10.61857 5.128024 -0.120424
9.773177 138.451 7.512469 4.876646 -0.759038
10.81189 138.451 6.395452 5.061349 -0.514895
11.8506 138.451 7.056719 5.035726 -0.897037
12.88931 138.451 8.089952 4.884412 -0.614486
13.92802 138.451 7.959757 4.968786 -0.911542
14.96673 138.451 8.213956 5.015145 -0.271313
16.00544 138.451 8.186871 6.707729 0.273158
17.04415 138.451 8.649151 6.845339 -0.201115
18.08286 138.451 8.355174 6.003948 0.530499
19.12157 138.451 8.295588 5.328072 0.689155
20.16028 138.451 7.734507 4.492726 0.997378
21.19899 138.451 6.930529 4.82462 0.404016
22.2377 138.451 7.136566 4.660357 0.726327
23.27641 138.451 6.561245 5.048279 0.479787
24.31512 138.451 6.905066 4.74111 0.129654
25.35383 138.451 8.229643 5.091009 -0.270457
26.39254 138.451 9.257124 4.854546 -0.122149
27.43125 138.451 6.323523 4.899528 -0.324105
28.46996 138.451 9.0418 6.079651 -0.144491
29.50867 138.451 8.21699 5.939689 0.356128
30.54738 138.451 8.650476 5.065435 0.495699
31.58609 138.451 8.186362 5.62725 0.624909
32.6248 138.451 8.950469 5.307217 0.63792
33.66351 138.451 8.666328 4.965092 0.101333
34.70222 138.451 6.935201 4.386014 -0.336997
35.74093 138.451 6.572403 4.475828 -0.470581
36.77964 138.451 5.11747 3.981639 -0.558873
37.81835 138.451 5.968266 3.86107 -0.34834
38.85706 138.451 7.483328 4.202555 0.321164
39.89577 138.451 8.824862 4.115334 -0.775794
40.93448 138.451 6.642488 3.601361 -0.904661
41.97319 138.451 6.171807 3.498742 -0.181313
43.0119 138.451 7.343992 3.238007 -0.379483
44.05061 138.451 11.07692 3.563458 -0.895592
45.08932 138.451 11.08043 3.908145 -1.147834
46.12803 138.451 9.265869 4.493116 -0.270755
47.16674 138.451 8.045094 4.878489 -0.135302
48.20545 138.451 7.530398 5.174396 -0.844319
49.24416 138.451 6.356405 4.367046 -1.149647
50.28287 138.451 6.589566 4.10994 -1.134179
51.32158 138.451 6.252155 4.439898 -0.594794
52.36029 138.451 9.446452 5.086475 -0.541476
53.399 138.451 7.223598 4.717309 -0.772114
54.43771 138.451 7.905507 4.309947 -0.388807
55.47642 138.451 8.389947 4.310579 0.030634
56.51513 138.451 7.712691 4.634562 0.373269
57.55384 138.451 6.960929 4.386647 0.119374
58.59255 138.451 5.192358 4.336147 -0.335754
59.63126 138.451 5.316361 4.106717 -0.242015
60.66997 138.451 5.265761 3.922952 -0.107017
61.70868 138.451 5.72433 4.51643 0.728547
62.74739 138.451 5.305811 4.590172 0.77388
63.7861 138.451 6.48314 4.868316 1.147875
64.82481 138.451 6.305251 4.902449 0.95815
65.86352 138.451 7.244096 5.083726 0.139552
66.90223 138.451 8.040444 4.992736 0.261217
67.94094 138.451 6.985745 3.905714 -0.382623
68.97965 138.451 9.09393 4.33781 0.317968
70.01836 138.451 9.67222 4.362645 -1.178114
71.05707 138.451 10.77317 4.945748 -1.29936
72.09578 138.451 8.875957 4.873734 -1.881118
73.13449 138.451 6.532483 4.31348 -1.003389
74.1732 138.451 5.96943 4.668248 -1.282639
75.21191 138.451 5.79531 4.7606 -0.817171
76.25062 138.451 6.018411 5.170532 0.284374
77.28933 138.451 4.480229 5.175829 0.563881
78.32804 138.451 3.987372 3.882109 -0.05639
79.36675 138.451 4.306767 3.700852 0.264771
80.40546 138.451 5.641794 3.418797 0.235765
81.44417 138.451 8.199303 3.796494 -0.351026
82.48288 138.451 7.17461 3.627688 -0.872123
83.52159 138.451 7.169257 3.448797 -0.546417
84.5603 138.451 5.002817 4.003226 0.026928
85.59901 138.451 5.776889 3.587505 -0.463789
86.63772 138.451 5.34797 3.892982 -0.547599
87.67643 138.451 5.73421 4.011181 -0.161848
88.71514 138.451 6.018262 3.748558 0.175776
89.75385 138.451 6.879531 3.931313 -0.017169
90.79256 138.451 6.931802 4.279375 0.163868
91.83127 138.451 5.815401 4.198907 0.208355
92.86998 138.451 6.271924 4.635499 -0.047318
93.90869 138.451 7.42186 4.21903 0.370536
94.9474 138.451 6.932529 4.746718 0.563684
95.98611 138.451 6.265903 4.896128 -0.336018
97.02482 138.451 4.934577 4.606522 -0.10916
98.06353 138.451 5.175009 3.696422 0.051782
99.10224 138.451 4.958608 3.480586 0.315885
100.1409 138.451 4.358054 3.507355 -0.487988
101.1797 138.451 5.61142 3.926069 0.047307
102.2184 138.451 7.621797 3.575025 0.443243
103.2571 138.451 6.939308 4.006932 -0.222881
104.2958 138.451 7.829882 4.278996 0.162288
105.3345 138.451 6.673239 4.163864 0.122069
106.3732 138.451 6.787805 4.797141 -0.007997
107.4119 138.451 6.699708 5.192298 0.503421
108.4506 138.451 5.626965 4.733395 0.077258
109.4893 138.451 5.797497 5.002532 0.142309
110.528 138.451 4.971362 4.149928 -0.355155
111.5668 138.451 7.676473 4.844567 -0.427905
112.6055 138.451 5.572587 5.522359 -0.698956
113.6442 138.451 8.251801 4.943685 -0.17783
114.6829 138.451 7.707568 4.41801 -0.17448
115.7216 138.451 6.004324 3.892329 0.02912
116.7603 138.451 5.601153 3.43858 -0.504023
117.799 138.451 6.203176 3.235525 -0.868605
118.8377 138.451 5.737185 3.910259 -1.031519
119.8764 138.451 5.062228 4.120823 -0.799737
120.9151 138.451 5.146448 4.119362 -0.580052
121.9539 138.451 6.074813 3.846308 -0.054806
122.9926 138.451 6.240409 3.172862 -0.408664
124.0313 138.451 7.268952 3.726318 -0.764864
125.07 138.451 5.009886 4.024583 -0.382664
126.1087 138.451 5.204634 3.921607 -0.063291
127.1474 138.451 4.693196 3.065634 0.186718
128.1861 138.451 6.140227 3.294849 0.496316
129.2248 138.451 6.532978 3.048869 -0.098213
130.2635 138.451 5.30637 3.418358 -0.237422
131.3022 138.451 4.105656 3.647812 -0.446182
132.341 138.451 4.23331 3.991472 -0.664789
133.3797 138.451 4.129246 4.012092 -0.95496
134.4184 138.451 4.75081 4.463708 -0.492303
135.4571 138.451 5.109391 4.009863 -1.141724
136.4958 138.451 5.272542 3.662436 -1.116772
137.5345 138.451 4.135141 3.50348 -0.865823
138.5732 138.451 3.322278 3.879593 -0.5525
139.6119 138.451 4.775552 3.895145 -0.032403
140.6506 138.451 5.194873 3.931958 0.530383
141.6893 138.451 3.342676 4.179679 0.284243
142.7281 138.451 3.709614 3.963708 -0.237286
143.7668 138.451 5.212411 4.337614 -1.297724
144.8055 138.451 4.323694 4.25455 -1.322327
145.8442 138.451 2.9838 4.004979 -0.73763
146.8829 138.451 3.708386 4.32945 -0.959533
147.9216 138.451 3.620704 4.31396 -0.8911
148.9603 138.451 2.784161 3.754798 -0.404446
149.999 138.451 2.927478 3.921228 -0.528491
151.0377 138.451 3.366935 3.341943 -0.65094
152.0764 138.451 4.112424 2.937026 -0.96312
153.1152 138.451 3.410214 3.047211 -0.643521
154.1539 138.451 3.720678 2.997634 -1.070393
155.1926 138.451 2.846419 3.158748 -0.982863
156.2313 138.451 2.611079 3.295906 -0.62333
157.27 138.451 2.482074 3.134638 -0.429542
158.3087 138.451 2.795542 3.225987 -0.369773
159.3474 138.451 2.968063 3.156776 -0.245509
160.3861 138.451 3.500774 3.547454 -0.744014
161.4248 138.451 3.644158 3.336643 -0.395079
162.4635 138.451 3.327036 3.171673 -0.374294
163.5023 138.451 3.629037 4.284095 0.277764
164.541 138.451 3.867905 3.466281 0.359519
165.5797 138.451 4.500845 4.309291 -0.636249
166.6184 138.451 4.25807 3.710207 -0.229372
167.6571 138.451 3.373279 2.981924 -0.829105
168.6958 138.451 2.582952 3.010722 -0.647831
169.7345 138.451 2.226076 2.866155 -0.700697
170.7732 138.451 2.773361 2.71771 -0.599154
171.8119 138.451 4.17786 3.111802 -0.475844
172.8506 138.451 4.16299 3.710149 -0.826675
173.8894 138.451 2.64054 3.424279 -0.696011
174.9281 138.451 2.568158 3.03895 -0.030518
175.9668 138.451 2.993959 3.075851 -0.08072
177.0055 138.451 3.204545 3.425729 0.05557
178.0442 138.451 2.661474 3.431677 -0.041088
179.0829 138.451 2.520572 3.222584 -0.264476
180.1216 138.451 2.588236 2.914411 -0.576148
181.1603 138.451 2.275827 3.268963 -0.743474
182.199 138.451 2.382542 3.292473 -0.61936
183.2377 138.451 3.978658 3.491805 -0.801681
184.2765 138.451 4.299759 3.459181 -0.767391
185.3152 138.451 3.728034 3.390543 -1.409354
186.3539 138.451 3.377635 3.809193 -1.152679
187.3926 138.451 2.583573 3.322689 -0.837524
188.4313 138.451 1.96179 3.508892 -0.415012
189.47 138.451 1.716109 3.037211 -0.423613
190.5087 138.451 1.589839 2.951198 -0.313085
191.5474 138.451 2.926796 3.230625 -0.276669
192.5861 138.451 2.087721 3.300845 -0.382296
193.6248 138.451 1.878498 4.039172 -0.059137
194.6636 138.451 1.451885 3.716487 -0.368362
195.7023 138.451 1.815238 3.499574 -0.375287
196.741 138.451 1.514739 3.187487 -0.544152
197.7797 138.451 1.442687 2.846318 -0.294347
198.8184 138.451 1.745848 2.765406 -0.039545
199.8571 138.451 1.282556 2.512449 -0.003445
200.8958 138.451 0.588258 3.313204 0.074165
201.9345 138.451 0 0 0
-154.343 137.4123 12.24513 38.97237 1.049394
-153.3043 137.4123 27.52066 21.91734 2.16936
-152.2656 137.4123 31.2434 25.51643 0.390909
-151.2269 137.4123 33.03566 26.31437 1.581227
-150.1882 137.4123 32.11707 23.40498 1.036456
-149.1495 137.4123 28.2825 22.56363 2.645064
-148.1107 137.4123 26.57094 18.78169 3.470386
-147.072 137.4123 26.30769 19.65283 3.498086
-146.0333 137.4123 28.4291 21.49096 7.991582
-144.9946 137.4123 25.57335 22.45421 6.093588
-143.9559 137.4123 26.20985 21.84057 5.385044
-142.9172 137.4123 20.91108 18.81748 5.072178
-141.8785 137.4123 20.82503 17.70741 4.540371
-140.8398 137.4123 22.45891 18.90796 3.785991
-139.8011 137.4123 28.09393 17.62777 2.088559
-138.7624 137.4123 24.59876 15.16354 1.851247
-137.7236 137.4123 21.65443 14.67452 1.885278
-136.6849 137.4123 21.30198 15.86765 1.722549
-135.6462 137.4123 21.19038 17.21804 2.019579
-134.6075 137.4123 20.84191 16.73462 3.610323
-133.5688 137.4123 20.03571 14.28059 4.58304
-132.5301 137.4123 19.73103 16.59352 5.197754
-131.4914 137.4123 19.07283 18.98627 7.527964
-130.4527 137.4123 19.39176 19.46026 7.586223
-129.414 137.4123 18.28072 14.89268 6.216853
-128.3753 137.4123 18.63167 14.92798 6.442374
-127.3365 137.4123 18.7022 13.44558 5.94812
-126.2978 137.4123 19.16396 13.30644 3.8861
-125.2591 137.4123 19.88001 11.09486 3.017423
-124.2204 137.4123 21.07041 10.84467 1.79442
-123.1817 137.4123 17.9521 11.48868 1.439202
-122.143 137.4123 14.77608 13.48348 0.887725
-121.1043 137.4123 18.09479 15.56548 3.482819
-120.0656 137.4123 20.83701 13.99492 4.49668
-119.0269 137.4123 18.5283 13.12434 4.022453
-117.9882 137.4123 16.42864 13.32121 4.13643
-116.9494 137.4123 16.93366 13.4227 5.086358
-115.9107 137.4123 18.61789 14.20792 5.772199
-114.872 137.4123 18.53754 12.47203 4.249912
-113.8333 137.4123 18.99026 13.73872 3.71321
-112.7946 137.4123 21.65208 14.58686 4.230043
-111.7559 137.4123 18.28801 14.06014 4.53469
-110.7172 137.4123 17.522 13.05326 3.365363
-109.6785 137.4123 14.12903 12.96517 1.777248
-108.6398 137.4123 14.01459 11.81846 1.990159
-107.6011 137.4123 16.42067 12.17879 2.767024
-106.5623 137.4123 14.10581 12.55651 2.546921
-105.5236 137.4123 12.41 13.01197 1.973891
-104.4849 137.4123 11.92122 12.16771 1.170126
-103.4462 137.4123 10.45758 11.79106 0.365956
-102.4075 137.4123 9.637498 9.954714 0.645039
-101.3688 137.4123 9.737143 8.35916 0.2643
-100.3301 137.4123 11.05381 8.489637 0.394571
-99.29137 137.4123 12.93617 8.468757 1.747006
-98.25266 137.4123 11.89663 7.957693 0.660268
-97.21395 137.4123 11.1938 7.645004 0.908091
-96.17524 137.4123 11.74274 8.268963 0.327446
-95.13653 137.4123 12.57419 9.172973 0.26228
-94.09782 137.4123 14.88044 10.72776 0.932845
-93.05911 137.4123 17.18529 10.83871 0.452626
-92.0204 137.4123 17.19253 11.41662 1.601987
-90.98169 137.4123 16.82535 11.5205 1.81293
-89.94298 137.4123 16.1782 11.85731 2.136684
-88.90427 137.4123 15.65463 11.10756 1.957746
-87.86556 137.4123 14.21297 9.946606 2.109942
-86.82685 137.4123 14.68296 8.812518 1.377783
-85.78814 137.4123 14.38693 10.76997 -0.250904
-84.74943 137.4123 16.11992 10.1032 -1.014902
-83.71072 137.4123 19.22675 10.25032 -1.48312
-82.67201 137.4123 22.36972 10.05841 -1.467174
-81.6333 137.4123 22.57813 9.340984 -0.145523
-80.59459 137.4123 26.67981 10.1613 1.143202
-79.55588 137.4123 29.09798 11.10187 3.962306
-78.51717 137.4123 29.47067 12.19846 5.865816
-77.47846 137.4123 23.91792 13.74616 7.391501
-76.43975 137.4123 25.09567 10.98132 6.844305
-75.40104 137.4123 27.2641 10.5081 7.070835
-74.36233 137.4123 32.57144 9.888319 6.298967
-73.32362 137.4123 36.28399 10.09111 6.484308
-72.28491 137.4123 37.82316 11.07736 6.833179
-71.2462 137.4123 40.52728 10.37671 6.282628
-70.20749 137.4123 38.03017 9.704493 5.971152
-69.16878 137.4123 34.9497 8.593216 5.396891
-68.13007 137.4123 34.44753 8.878616 6.022928
-67.09136 137.4123 32.36072 9.763767 6.366714
-66.05265 137.4123 30.19901 10.16925 6.044849
-65.01394 137.4123 23.77719 10.768 3.739254
-63.97523 137.4123 10.93023 11.22107 2.017151
-62.93652 137.4123 10.0597 12.97397 2.673038
-61.89781 137.4123 12.0372 10.56269 1.855391
-60.8591 137.4123 11.33076 8.615466 0.155876
-59.82039 137.4123 10.78246 8.782353 -0.301001
-58.78168 137.4123 10.494 9.351243 -0.850976
-57.74297 137.4123 11.21139 10.09323 -0.055597
-56.70426 137.4123 11.14353 11.38289 0.599648
-55.66555 137.4123 10.66237 9.4454 -0.104697
-54.62684 137.4123 8.775961 8.576332 0.971203
-53.58813 137.4123 10.20789 8.719104 -0.608637
-52.54942 137.4123 10.94627 8.75244 -0.460555
-51.51071 137.4123 13.22847 9.622791 -0.846769
-50.472 137.4123 14.94526 8.633741 -0.257681
-49.43329 137.4123 12.56111 7.597844 -0.883813
-48.39458 137.4123 9.612009 6.523986 -1.356783
-47.35587 137.4123 9.385769 6.724034 -1.583858
-46.31716 137.4123 9.256924 5.881844 -0.874671
-45.27845 137.4123 10.60797 5.688886 -0.924906
-44.23974 137.4123 13.73666 5.458071 -0.26735
-43.20103 137.4123 15.28939 6.541371 0.910263
-42.16232 137.4123 15.78698 6.995788 1.772557
-41.12361 137.4123 14.67508 9.430528 1.78
-40.0849 137.4123 12.87532 10.03507 2.925931
-39.04619 137.4123 7.584811 10.00172 1.634117
-38.00748 137.4123 8.084728 11.1175 2.329244
-36.96877 137.4123 7.478792 9.979199 2.291353
-35.93006 137.4123 7.596685 7.959122 2.186635
-34.89135 137.4123 8.735635 6.71832 2.237232
-33.85264 137.4123 9.083551 7.415262 2.834096
-32.81393 137.4123 9.349263 6.971068 1.975266
-31.77522 137.4123 7.93449 6.928943 1.212518
-30.73651 137.4123 7.293406 6.696552 -0.091484
-29.6978 137.4123 8.442945 6.147111 -0.519792
-28.65909 137.4123 7.51241 6.807214 -0.525377
-27.62038 137.4123 8.638699 7.364626 -0.680377
-26.58167 137.4123 8.081846 7.011959 0.665288
-25.54296 137.4123 8.589616 6.786861 0.746863
-24.50425 137.4123 7.342364 5.761625 0.591891
-23.46554 137.4123 7.016097 5.157005 0.237741
-22.42683 137.4123 6.519127 5.111474 -0.314177
-21.38812 137.4123 8.811275 5.565943 -0.889098
-20.34941 137.4123 6.767569 5.238236 -0.953945
-19.3107 137.4123 8.575572 5.607113 -0.904383
-18.27199 137.4123 11.12422 5.713842 -0.339212
-17.23328 137.4123 9.358027 4.823365 0.12123
-16.19457 137.4123 11.24388 4.836342 0.347294
-15.15586 137.4123 9.854152 5.102867 -0.238899
-14.11715 137.4123 8.922552 5.962602 -0.997533
-13.07844 137.4123 8.507071 5.861287 -1.143651
-12.03973 137.4123 7.44584 5.87817 -0.938488
-11.00102 137.4123 9.197454 5.942701 -1.09052
-9.962313 137.4123 9.825313 5.966841 -2.012909
-8.923603 137.4123 8.094329 5.71745 -0.780012
-7.884893 137.4123 8.24286 5.673028 -1.31786
-6.846183 137.4123 8.450581 6.135386 -2.050782
-5.807473 137.4123 9.274596 6.163757 -2.613961
-4.768763 137.4123 8.885575 7.151494 -1.992444
-3.730053 137.4123 7.837535 7.709216 -1.168356
-2.691343 137.4123 9.424271 7.474627 -0.206355
-1.652633 137.4123 8.544448 8.699406 0.263248
-0.613923 137.4123 7.973552 8.634385 0.705687
0.424787 137.4123 7.716392 7.111045 1.702823
1.463497 137.4123 7.895291 8.24979 1.250424
2.502207 137.4123 9.340596 7.610149 0.75255
3.540917 137.4123 8.46944 6.947483 0.25362
4.579627 137.4123 7.7382 5.453302 -0.485306
5.618337 137.4123 7.775318 5.793131 -0.251167
6.657047 137.4123 7.998018 5.373007 0.168268
7.695757 137.4123 7.095734 5.186553 0.504914
8.734467 137.4123 7.182629 5.272707 0.10994
9.773177 137.4123 6.215488 5.743051 -0.773053
10.81189 137.4123 7.246843 6.000914 -1.113275
11.8506 137.4123 7.40815 5.818351 -1.088969
12.88931 137.4123 7.335821 5.882584 -1.295872
13.92802 137.4123 6.808928 4.882807 -0.332848
14.96673 137.4123 7.829451 5.846113 -0.475168
16.00544 137.4123 8.447236 6.563882 -0.547856
17.04415 137.4123 7.280268 6.841659 0.137885
18.08286 137.4123 6.727339 6.868088 0.036707
19.12157 137.4123 6.259518 6.81974 0.258612
20.16028 137.4123 6.365119 7.53135 0.990208
21.19899 137.4123 5.968914 7.492926 1.183834
22.2377 137.4123 5.704596 7.061266 1.124352
23.27641 137.4123 5.085907 8.175872 0.668043
24.31512 137.4123 6.314102 7.874522 0.496462
25.35383 137.4123 7.804776 8.084801 0.100561
26.39254 137.4123 6.282183 7.460111 0.021685
27.43125 137.4123 5.717614 5.780711 0.273402
28.46996 137.4123 6.570374 5.921683 0.713041
29.50867 137.4123 6.357014 4.561308 0.423932
30.54738 137.4123 8.06669 4.468658 0.205661
31.58609 137.4123 7.637551 5.119645 0.64152
32.6248 137.4123 7.674592 5.192787 0.711246
33.66351 137.4123 5.837255 5.498785 -0.152924
34.70222 137.4123 6.234508 4.172448 -0.131239
35.74093 137.4123 5.497779 4.801608 -0.212418
36.77964 137.4123 6.057944 5.118525 0.491221
37.81835 137.4123 5.083627 4.316859 0.17589
38.85706 137.4123 5.344424 4.169685 0.220772
39.89577 137.4123 5.137722 4.20788 -0.696689
40.93448 137.4123 5.632962 3.321419 -0.506863
41.97319 137.4123 4.661131 3.096937 -0.16873
43.0119 137.4123 4.972716 3.8647 -0.353088
44.05061 137.4123 6.275267 3.678123 -0.989402
45.08932 137.4123 6.484793 5.363658 -1.471514
46.12803 137.4123 6.751419 4.925174 -0.537418
47.16674 137.4123 6.519805 4.707561 0.15596
48.20545 137.4123 5.254126 4.651108 -0.142847
49.24416 137.4123 4.660466 4.898036 -0.476473
50.28287 137.4123 4.977614 3.992808 -0.224986
51.32158 137.4123 4.609113 5.503426 -0.387314
52.36029 137.4123 7.138763 4.80911 0.609053
53.399 137.4123 7.661099 4.707811 0.139368
54.43771 137.4123 7.267642 4.136901 -0.058263
55.47642 137.4123 7.133274 4.197093 0.054007
56.51513 137.4123 6.22201 4.210668 0.026075
57.55384 137.4123 5.277542 4.250863 -0.083874
58.59255 137.4123 4.52914 4.138525 -0.203186
59.63126 137.4123 4.511824 3.912707 -0.285806
60.66997 137.4123 4.674525 3.929715 -0.102258
61.70868 137.4123 4.47107 4.197703 0.441462
62.74739 137.4123 5.0969 4.515141 0.864201
63.7861 137.4123 5.906215 6.301967 1.571217
64.82481 137.4123 6.051441 6.193629 0.690084
65.86352 137.4123 5.916687 5.177299 0.232205
66.90223 137.4123 6.875291 4.631485 -0.436064
67.94094 137.4123 7.439009 4.344076 -0.159838
68.97965 137.4123 6.735331 4.032465 -0.321173
70.01836 137.4123 8.702814 4.726608 -1.124283
71.05707 137.4123 8.705002 5.27456 -1.198406
72.09578 137.4123 7.322425 5.270284 -0.483812
73.13449 137.4123 6.169575 4.624924 0.149075
74.1732 137.4123 5.025324 5.781542 -0.097121
75.21191 137.4123 5.280872 6.240131 -0.009751
76.25062 137.4123 5.540776 5.568093 1.066759
77.28933 137.4123 4.239033 4.875643 0.735228
78.32804 137.4123 3.781019 3.636992 -0.054542
79.36675 137.4123 4.886909 3.873979 -0.373153
80.40546 137.4123 4.859953 5.385149 -0.011387
81.44417 137.4123 5.805272 5.464554 0.030193
82.48288 137.4123 5.676032 4.571018 -0.06838
83.52159 137.4123 5.337574 3.791551 -0.570099
84.5603 137.4123 3.879882 3.126863 -0.340543
85.59901 137.4123 4.757644 3.157316 -0.260435
86.63772 137.4123 5.400065 3.631771 -0.178588
87.67643 137.4123 4.562565 3.617795 0.041494
88.71514 137.4123 5.055763 3.306129 0.24287
89.75385 137.4123 4.695501 3.563353 0.086069
90.79256 137.4123 5.510535 4.09598 0.123895
91.83127 137.4123 5.936059 4.362542 0.089346
92.86998 137.4123 5.827114 4.14672 0.14555
93.90869 137.4123 6.10911 3.897684 0.194603
94.9474 137.4123 5.706729 4.47514 0.317753
95.98611 137.4123 3.980057 4.967747 -0.328736
97.02482 137.4123 4.392364 4.27944 -0.25095
98.06353 137.4123 4.412226 3.588486 -0.142761
99.10224 137.4123 4.450847 3.714481 -0.160424
100.1409 137.4123 3.749842 3.817723 -0.430632
101.1797 137.4123 3.728358 3.709262 -0.33425
102.2184 137.4123 5.355556 3.37872 0.236998
103.2571 137.4123 4.662899 3.537924 0.195533
104.2958 137.4123 5.269766 3.795961 0.126284
105.3345 137.4123 5.115605 4.093296 0.390731
106.3732 137.4123 6.070489 4.242609 0.496035
107.4119 137.4123 5.619083 5.514431 0.490424
108.4506 137.4123 4.179503 5.609924 0.561615
109.4893 137.4123 4.313301 5.36721 0.223906
110.528 137.4123 4.169526 4.861848 -0.070014
111.5668 137.4123 5.048695 5.15304 -0.408783
112.6055 137.4123 5.481714 4.417586 -0.379341
113.6442 137.4123 5.460702 4.401713 0.270006
114.6829 137.4123 5.15856 3.936753 0.398112
115.7216 137.4123 4.260056 3.454712 -0.010642
116.7603 137.4123 4.497216 3.380865 -0.441993
117.799 137.4123 4.880233 3.647734 -0.610868
118.8377 137.4123 4.486645 3.758989 -0.630302
119.8764 137.4123 3.841588 3.745214 -0.771885
120.9151 137.4123 4.614507 3.716099 -0.617892
121.9539 137.4123 5.021944 3.827628 -0.118147
122.9926 137.4123 5.386657 3.177633 -0.409518
124.0313 137.4123 6.467235 3.312589 -0.884791
125.07 137.4123 5.552824 3.81294 -1.049502
126.1087 137.4123 5.440564 3.589369 -1.137846
127.1474 137.4123 5.667006 3.218455 -1.078121
128.1861 137.4123 6.575891 3.200088 -1.014174
129.2248 137.4123 6.381402 3.299269 -0.659579
130.2635 137.4123 5.461777 3.261524 -0.87182
131.3022 137.4123 4.52543 3.792705 -0.661921
132.341 137.4123 3.973401 4.171488 -0.906047
133.3797 137.4123 4.885151 3.768842 -0.295318
134.4184 137.4123 3.492087 3.902174 -0.425811
135.4571 137.4123 3.679891 3.858757 -0.823438
136.4958 137.4123 4.535331 3.514877 -0.367743
137.5345 137.4123 2.763029 3.583236 -0.591905
138.5732 137.4123 2.574418 3.667346 -0.472437
139.6119 137.4123 2.571486 3.769067 0.107633
140.6506 137.4123 2.783711 3.459509 0.227078
141.6893 137.4123 2.667707 3.362867 -0.153493
142.7281 137.4123 2.903275 3.238639 -0.409922
143.7668 137.4123 2.762748 3.203419 -0.313313
144.8055 137.4123 2.811665 3.263825 -0.356423
145.8442 137.4123 2.89712 3.6623 -0.425911
146.8829 137.4123 2.727406 3.319568 -0.564077
147.9216 137.4123 2.729244 3.668433 -0.461258
148.9603 137.4123 2.546824 3.916393 -0.411599
149.999 137.4123 2.162356 3.653584 -0.392947
151.0377 137.4123 2.200936 3.443962 -0.51689
152.0764 137.4123 2.344706 3.12771 -0.655516
153.1152 137.4123 2.700845 2.978498 -0.781078
154.1539 137.4123 2.906442 2.852095 -0.961094
155.1926 137.4123 2.935324 2.851904 -1.033146
156.2313 137.4123 2.459223 2.742427 -0.688446
157.27 137.4123 2.836332 3.231556 -1.002054
158.3087 137.4123 3.162528 3.476594 -1.110515
159.3474 137.4123 2.979852 3.347783 -0.650906
160.3861 137.4123 2.452732 3.008381 -0.485752
161.4248 137.4123 2.517447 3.003218 -0.361062
162.4635 137.4123 2.287733 2.859004 -0.145332
163.5023 137.4123 2.490546 3.585135 -0.223711
164.541 137.4123 2.993815 3.992393 -0.174684
165.5797 137.4123 3.799536 3.6129 -0.175801
166.6184 137.4123 2.839358 3.14907 -0.28133
167.6571 137.4123 2.346596 3.365295 -0.465589
168.6958 137.4123 1.966053 2.751225 -0.494241
169.7345 137.4123 2.114101 2.793083 -0.659834
170.7732 137.4123 2.179018 2.697229 -0.527425
171.8119 137.4123 2.49203 2.820501 -0.435103
172.8506 137.4123 2.236065 2.961189 -0.470392
173.8894 137.4123 2.093818 3.12762 -0.762119
174.9281 137.4123 1.754828 2.833283 -0.327631
175.9668 137.4123 1.944873 2.855158 -0.140488
177.0055 137.4123 2.090112 3.174167 -0.189101